4
Atoms. Timestep: 4300
1   10.05070   20.28590    3.65185
1   10.41130   20.03280    3.81259
1   10.44400   19.94650    3.72132
1   10.49350   19.68200    3.69231
