4
Atoms. Timestep: 4300
1   34.79360   35.72170   29.96120
1   34.99890   35.75680   30.29680
1   35.14210   35.84180   30.30360
1   35.21360   35.71730   30.39450
