4
Atoms. Timestep: 4300
1   10.51790   22.02810   32.20520
1   10.52180   22.03000   31.95000
1   10.68900   22.01840   32.05050
1   10.36240   21.90610   31.89220
