2932
Atoms. Timestep: 4300
1    0.89721    1.03562   29.16160
1    1.09885    1.03288   29.55900
1    1.23723    0.27834   29.46330
1    1.21489    0.24936   29.47690
1    0.77136    0.42717   30.12280
1    0.96463    0.68688   30.45790
1    0.91073    0.79662   30.41960
1    1.31730    0.92975   30.26130
1    1.05127    1.76475   30.21460
1    1.06487    1.65833   29.95180
1    0.89934    1.45937   29.94120
1    0.60277    1.31790   29.97340
1    1.60059    0.11212   30.83970
1    1.68917    0.07214   30.33340
1    1.65851    0.05972   30.19830
1    1.97723   -0.03856   30.18240
1    2.05282   35.01140   30.55310
1    2.12954   35.09730   30.49890
1    2.09118   35.11230   30.64790
1    1.51819   35.12960   30.85190
1    3.38527   33.71000   31.55760
1    3.41749   33.55660   31.57730
1    3.43314   33.59970   31.86270
1    3.33245   33.41580   31.92000
1    3.19745   32.01610   30.98590
1    3.60383   32.30220   31.10220
1    3.47970   32.43410   31.33520
1    3.69756   32.45420   31.35660
1    3.99618   33.06290   30.92200
1    3.98951   33.38020   30.88010
1    4.19811   33.22330   30.53560
1    3.75825   33.10700   30.19160
1    4.00684   31.87240   30.40610
1    3.73705   31.76500   30.42340
1    3.71107   32.16750   30.39930
1    3.70003   32.30800   30.05050
1    2.28695   34.22360   30.66190
1    2.97030   33.77080   30.65100
1    3.07579   33.77640   30.65920
1    2.97874   33.81060   30.63330
1    3.21721   34.55250   31.77470
1    3.30836   34.63160   31.80620
1    3.37482   34.69570   31.94440
1    3.20529   34.57450   32.28260
1    2.19755   35.02520   31.55910
1    2.59597   35.00110   31.53650
1    2.63809   35.00380   31.27160
1    2.81228   34.92900   31.27930
1    2.98582   35.32250   30.21580
1    2.91233   35.25270   30.17260
1    3.02211   35.23820   30.47890
1    2.97542   34.64250   30.13490
1    3.41675   35.46370   31.24810
1    3.46853   35.40170   31.37520
1    3.26438   35.37740   31.53890
1    3.21671   35.90280   31.42680
1    2.53883   35.93400   31.19480
1    2.41324   35.82780   30.87210
1    2.54241   35.88040   30.91310
1    2.55143   35.94620   30.64760
1    3.75932   34.30730   30.14820
1    3.73806   34.18710   30.18930
1    4.02187   34.10440   30.58740
1    3.83860   33.87370   30.58770
1    3.13591   34.68860   30.80850
1    3.36143   34.67110   30.75510
1    3.09277   34.58380   30.71630
1    2.47967   34.00690   32.36600
1    2.20118   34.10500   31.46400
1    2.61885   34.02820   31.40520
1    2.69552   34.01710   31.48860
1    2.70070   34.04480   31.30550
1    4.10124   34.97490   29.38340
1    3.72280   35.16540   29.64040
1    3.64607   35.31650   29.61980
1    3.61714   35.37570   29.68560
1    2.09227   35.84110   29.36830
1    2.42534   35.79130   29.60350
1    2.52786   35.88000   29.61510
1    2.56732   36.12877   29.73460
1    2.21200    0.99395   29.51720
1    2.18323    0.77332   29.57960
1    1.95209    0.57573   29.59740
1    1.87226    1.46317   29.50840
1    2.90199    1.29429   27.76510
1    2.93574    1.27485   27.92570
1    2.67000    1.43832   27.95020
1    2.17584    1.59311   28.43960
1    3.58788    1.72292   28.23040
1    3.56091    1.96754   28.10600
1    3.54754    1.78231   28.19840
1    3.54849    2.24252   28.24050
1    4.29613    1.14697   28.70520
1    3.94646    0.92629   28.19270
1    3.87473    0.79040   28.10330
1    3.81501    0.87672   28.08910
1    3.75797    0.18986   29.09990
1    3.13346    0.19841   29.07510
1    3.36840    0.25435   28.79210
1    3.14902    0.16090   28.73780
1    2.22803    0.65277   28.88740
1    2.19936    0.66741   28.90650
1    2.10186    0.60093   28.65490
1    1.69018    0.58816   28.72520
1    2.80551    1.47677   28.80750
1    3.04348    1.15923   28.80980
1    3.11560    0.91078   28.78690
1    3.32187    0.99208   28.57730
1    3.25760    0.80650   29.54060
1    3.06422    1.21333   29.84220
1    3.03832    1.02771   29.83950
1    3.39811    1.30508   29.61340
1    2.13829    0.18337   27.98140
1    2.15639    0.43130   27.75540
1    2.21152    0.77485   27.92290
1    2.08209    0.57320   27.91440
1    3.16830    0.63624   27.46400
1    3.31382    0.49611   27.50060
1    3.06804    0.40430   27.58400
1    3.35823    0.10077   27.89220
1    2.64088    0.78849   26.52900
1    3.46130    0.61604   26.85140
1    3.01968    0.60970   26.50950
1    3.25788    0.59298   26.33590
1    2.41764   35.24550   25.47620
1    2.74810   35.19620   25.74050
1    2.75875   35.06410   25.79450
1    2.77620   35.38680   25.94040
1    3.21236    0.03837   25.73490
1    3.35181    0.05810   25.81330
1    3.29339   -0.08490   25.67110
1    3.26348   -0.02930   25.11480
1    3.05675   35.76640   26.60510
1    3.28559   35.65840   27.01790
1    3.31494   35.51980   26.80520
1    3.33352   35.42490   26.73800
1    2.50591   35.81480   26.33900
1    2.41338   35.78931   26.30710
1    2.36958   35.99720   26.21400
1    2.36647   35.89040   26.75550
1    2.13297    1.55261   25.93210
1    2.28138    1.43558   25.76690
1    2.86621    1.37204   25.99060
1    2.97761    1.37581   25.72430
1    2.78174    1.36803   25.08630
1    2.48598    1.43318   24.85290
1    2.24033    1.41779   24.89520
1    2.23348    1.27455   24.54610
1    2.59983    0.85508   25.25890
1    2.57868    0.44063   25.64190
1    2.44500    0.59322   25.51620
1    2.16242    0.74348   25.50980
1    3.37845    0.78263   25.42760
1    3.45101    0.84880   25.25670
1    3.45872    0.85032   25.52480
1    3.13562    0.84391   24.64200
1    2.85449    2.11286   25.65560
1    2.67251    2.48979   25.62170
1    2.42790    2.19495   25.53770
1    2.24846    2.37618   25.41660
1    3.48408    1.97701   25.35530
1    3.64207    2.20955   25.19600
1    3.54452    2.43671   25.16520
1    3.47421    2.65265   25.21360
1    2.62761    2.84881   26.45190
1    2.63221    2.81210   26.41010
1    2.33266    2.62719   26.39780
1    2.14028    2.57696   26.25770
1    2.86141    2.23959   27.56620
1    3.12511    2.24944   27.59290
1    3.44331    2.22403   27.16560
1    3.62549    2.12807   27.02810
1    3.74452    1.17809   26.31390
1    4.25443    1.23162   26.33420
1    4.39258    0.84642   26.45850
1    4.12867    0.77700   26.20450
1    4.38263    1.73463   27.77700
1    4.50814    1.85734   27.67990
1    4.76437    1.47064   27.97470
1    5.00376    1.26503   28.14280
1    5.37762    1.72218   26.93250
1    5.11355    1.58590   26.80830
1    5.15776    1.27078   26.98410
1    4.84492    1.31420   26.98530
1    4.24733    0.83170   27.54380
1    4.24063    0.93679   27.19770
1    3.95473    1.05341   27.12720
1    3.94870    1.22939   27.31140
1    5.36132    0.28523   25.25960
1    5.20790    0.33650   25.17930
1    5.44164    0.54305   25.36730
1    5.90336    0.29166   25.21180
1    5.49132    1.61555   25.23750
1    5.24823    1.42094   25.14840
1    5.17434    1.76835   25.25900
1    5.43216    1.18923   24.61720
1    4.05331    0.66706   24.50370
1    4.24464    0.27385   24.80960
1    4.28595    0.29063   24.73720
1    4.47424    0.26526   25.12000
1    4.07951    1.39188   25.05350
1    4.42374    1.32290   25.46110
1    4.18088    1.35275   25.29110
1    4.35238    1.27784   25.52180
1    5.53262    0.58402   26.19710
1    5.31181    1.23308   25.97580
1    5.44660    1.21086   25.95850
1    5.44196    1.07643   25.69450
1    5.65024    2.79334   25.54820
1    5.98332    2.97137   25.53180
1    5.73881    3.08138   25.55360
1    5.25575    3.22100   25.35050
1    4.32592    2.23813   25.96950
1    4.30510    2.18036   25.88150
1    3.94743    2.00507   26.02430
1    3.59124    1.85379   26.00920
1    4.50567    3.06363   24.98890
1    4.75214    2.68995   24.90120
1    4.47377    2.68612   25.13140
1    4.54830    2.29846   25.00560
1    5.44216    2.95879   24.70940
1    5.61305    2.99201   24.50700
1    5.87889    2.57754   24.84520
1    5.48171    2.40400   25.00120
1    5.97024    2.03336   24.06610
1    5.84285    2.13085   24.02910
1    5.61743    2.39888   24.42390
1    5.83099    1.94892   23.73680
1    5.32874    2.54497   26.45930
1    5.42091    2.28121   26.15500
1    5.08489    2.18315   25.83400
1    5.24592    2.12279   26.09190
1    3.60696    1.72571   26.61340
1    4.28239    1.89072   26.75540
1    4.31790    1.94742   26.64250
1    4.32253    2.63782   27.09220
1    6.45926    2.15633   25.90630
1    6.17732    2.22997   25.96570
1    6.29615    1.82437   26.01980
1    6.19135    1.54977   26.57410
1    7.92674    0.94109   26.37090
1    7.87813    0.96832   26.49200
1    7.92284    1.22303   26.42690
1    7.26174    1.06307   26.90780
1    7.15063    1.98209   26.03510
1    7.34943    1.92147   26.27750
1    7.18040    1.85854   26.22820
1    7.28659    1.91433   26.53530
1    7.24000    1.12109   26.02030
1    6.99642    1.10070   25.94000
1    6.87119    1.00417   25.88560
1    6.91153    0.68370   25.98190
1    6.34419    1.24883   24.49620
1    6.35889    1.39361   25.08200
1    6.26008    1.36594   24.92080
1    6.12865    1.67853   25.24220
1    8.12541    0.61257   25.53980
1    8.06685    0.70706   25.47430
1    7.86313    0.56990   25.61790
1    7.67206    0.05570   25.73030
1    7.19550    1.07256   24.98930
1    7.29751    1.45884   25.03320
1    7.11855    1.30697   25.04260
1    7.12252    1.61890   25.23180
1    7.69346    2.57754   26.00240
1    7.64322    2.53047   25.65630
1    7.67550    2.33754   25.50380
1    7.97664    2.39601   25.54950
1    7.22090    2.32319   24.69150
1    7.04458    2.22851   24.69990
1    7.11134    2.42793   24.27880
1    6.93895    2.19983   23.74020
1    6.42529    2.23150   25.01640
1    6.46440    2.25737   24.99730
1    6.32233    2.62186   25.09980
1    6.61841    2.88897   24.65990
1    6.77503    3.77772   25.47080
1    6.51891    3.58928   25.38230
1    6.29637    3.54069   25.33250
1    5.94027    3.81661   25.55650
1    7.33349    3.18586   24.92890
1    7.27402    3.16121   25.42370
1    7.30941    3.28664   25.42990
1    7.31415    3.13835   25.29540
1    6.61181    2.66326   26.14720
1    6.56634    2.88806   26.06950
1    6.35376    2.75734   26.34190
1    6.30744    3.29090   26.40420
1    8.21114    1.50609   24.72890
1    8.39495    1.64267   24.36700
1    7.96949    1.56013   24.36050
1    7.73360    1.45870   24.35390
1    9.90551    2.08728   26.18770
1    9.73809    1.74962   25.95390
1    9.71524    1.79212   25.78030
1    9.67624    1.81971   25.66500
1    9.03330    0.75788   24.78610
1    8.92779    1.53555   25.59880
1    8.96380    0.77500   25.22740
1    9.03175    1.35942   25.45210
1    8.33827    1.22756   25.03600
1    9.17566    1.66598   24.73870
1    9.38993    1.78157   24.86720
1    9.69977    1.85500   24.55200
1    9.65639    0.54611   25.66890
1    9.66131    0.39365   25.67210
1    9.35944    0.50824   25.65320
1    9.73376    1.13514   25.17150
1    7.84670    1.49273   25.57280
1    7.91055    1.49604   25.84130
1    8.13597    1.87777   26.01110
1    8.26484    2.08257   26.26270
1    9.53928   34.74740   25.86900
1   10.07680   34.51940   25.73580
1    9.99381   34.57490   25.86680
1   10.08870   34.71200   25.97610
1    8.72920   35.77190   25.95200
1    8.90017   35.53020   26.08980
1    8.76170   35.65260   25.93220
1    8.55916   36.00360   25.39910
1   10.23420    0.20403   24.98740
1    9.82505   -0.10440   24.94470
1    9.88162   -0.16650   25.35430
1    9.85330   -0.40100   25.49060
1    9.77151   34.06200   27.94920
1    9.92211   33.74460   27.72020
1   10.22860   33.72060   27.50120
1   10.00860   33.60920   27.53250
1    9.89628   33.60100   26.12710
1    9.61443   33.80110   26.52510
1    9.70752   33.59390   26.58120
1    9.83430   34.16620   26.69850
1    9.20208   33.62350   27.02250
1    9.07873   33.36570   27.14620
1    8.94219   33.53980   26.90200
1    8.73395   34.21640   27.78830
1    9.88683   33.18100   26.91560
1    9.57552   32.82370   26.89000
1    9.53884   32.85520   26.74830
1    9.23354   32.58270   26.96160
1    9.54855   34.84990   27.84200
1    9.92408   34.70010   27.49260
1    9.50210   34.45270   27.44560
1    9.57029   34.55610   27.43600
1    9.82662   35.31130   26.40420
1    9.68055   35.59430   26.22020
1    9.65195   35.41770   26.26770
1    9.33342   34.83820   26.60810
1    9.18157   35.65370   27.45030
1    9.31468   35.69160   27.10430
1    9.08068   35.60320   27.05050
1    9.44450   35.46570   26.93450
1    9.62430    0.27752   26.95510
1    9.92521    0.03068   26.88270
1    9.77956    0.30771   26.88410
1    9.97137    0.54712   27.70100
1    9.12778    1.69211   26.77990
1    9.03598    1.66079   26.51870
1    9.29815    1.30229   26.37080
1    9.14628    0.92504   26.44960
1    7.98161    0.07637   26.64650
1    8.84192    0.47298   26.49050
1    8.76931    0.64070   26.05920
1    8.69719    0.58823   26.17390
1    8.79861    2.21401   25.39350
1    8.80362    2.23823   25.18060
1    9.03705    2.13504   25.70790
1    9.40485    2.54761   25.43040
1    8.23685    2.98859   25.12550
1    8.45681    3.11318   25.36630
1    8.59948    3.09048   25.43290
1    8.89799    3.23812   25.32560
1    8.87635    2.42431   24.57480
1    9.09477    2.61215   24.50570
1    9.08353    2.48901   24.47090
1    9.30972    2.91694   24.54400
1    8.28505    2.55956   24.07750
1    8.20186    2.48075   24.21730
1    8.24899    2.50476   24.36770
1    8.01059    2.41759   24.70030
1   10.17500   35.54340   28.21780
1   10.09470   35.60850   27.92130
1    9.93422   35.49670   27.80300
1   10.11040   35.88980   27.60670
1   10.20520   35.29740   26.94330
1   10.47320   35.12770   26.95140
1   10.26250   34.91290   27.06840
1   10.74310   35.11930   27.57700
1   11.05700   34.66290   26.61390
1   10.85050   34.57270   26.58620
1   10.58300   34.20670   26.42770
1   10.58080   34.06990   26.31420
1   10.92730   33.74860   28.22720
1   11.16450   34.06160   27.83710
1   11.02110   34.11310   27.69370
1   11.06900   34.25560   27.77910
1   10.32590   35.78130   25.89160
1   10.30480   36.12400   26.10660
1   10.36720   36.06875   26.20140
1   10.63040   35.98567   26.47530
1   11.98140   32.88870   26.51890
1   11.90220   33.13870   26.40970
1   11.78490   32.72170   26.30870
1   11.86360   32.75200   25.84950
1   11.09690   32.58370   26.78610
1   11.38320   32.36540   26.69060
1   11.41760   32.50510   27.10980
1   11.81030   32.57910   27.39110
1   11.10660   33.34020   26.18900
1   10.94790   33.47810   26.04600
1   11.24280   33.55020   26.06250
1   11.31220   34.13350   25.92610
1   11.55130   33.87040   26.78420
1   11.60900   33.65000   26.71890
1   11.51540   33.91550   27.08730
1   11.67520   34.44740   27.25820
1   11.33710   31.84770   27.83480
1   11.52520   32.33580   28.00930
1   11.23230   32.31710   27.70270
1   11.68700   32.21590   28.12250
1   10.56020   33.01630   27.50710
1   11.06190   33.34020   27.03670
1   10.80020   33.32460   27.24460
1   10.78190   33.46840   26.90640
1   11.51980   33.55020   28.83690
1   11.46740   33.10030   28.92550
1   11.28490   32.99260   28.83640
1   11.32840   32.90780   28.67980
1   11.65990   33.40330   28.03730
1   11.65650   33.47780   27.76170
1   11.89770   33.59850   28.07920
1   12.03020   34.10240   28.24000
1   11.36220   33.21300   30.07610
1   11.43530   33.59810   30.27150
1   11.31240   33.62970   30.22750
1   11.06480   33.93400   29.99730
1   11.52140   33.62980   31.86380
1   11.57900   33.50150   31.87080
1   11.49480   33.67080   31.72360
1   11.24610   33.68330   31.84450
1   11.87830   33.21940   31.25670
1   11.68500   33.07660   31.13950
1   11.25050   33.14840   30.82610
1   11.09110   33.06780   31.01310
1   11.86130   32.53850   31.53710
1   11.61850   32.21200   31.90290
1   11.81310   32.51250   31.74150
1   11.55680   32.54980   32.12920
1   12.37380   31.84570   31.97850
1   12.53880   31.86180   31.82630
1   12.66330   32.01060   32.15240
1   12.43820   31.96200   32.67440
1   12.70720   30.04480   32.98370
1   13.01600   30.42790   33.32660
1   13.08660   30.72730   33.48320
1   13.09670   30.68830   33.47830
1   13.01000   30.93860   32.60240
1   13.03520   31.22410   32.74760
1   12.82360   31.34140   32.68160
1   12.84830   31.36620   32.68060
1   12.49430   30.39270   32.44970
1   12.30200   30.56510   32.59640
1   12.18190   30.56170   32.35230
1   11.96150   30.29510   32.37710
1   13.40350   31.68570   33.32330
1   13.24410   31.74070   33.21280
1   13.50770   31.82020   33.35140
1   14.03040   31.79460   33.14650
1   13.86760   30.21170   33.13000
1   14.12360   30.83240   33.09430
1   13.83480   31.01420   33.26860
1   13.95980   30.81290   33.38460
1   12.38110   30.95170   34.28890
1   12.21200   30.84820   33.85000
1   12.01860   30.98640   34.10580
1   11.99010   30.32860   33.72810
1   11.97150   31.92060   33.97400
1   12.78160   31.38870   33.96970
1   12.92070   31.34940   33.69980
1   12.58220   31.57360   33.74310
1   11.39880   31.14920   34.05980
1   11.05580   31.26450   33.85450
1   11.36080   31.17960   33.80630
1   10.99480   31.23670   33.74630
1   11.80030   31.29990   32.94710
1   11.80440   31.08100   33.15030
1   11.97730   31.09590   33.14730
1   12.20110   31.25520   33.26200
1   11.07430   29.92780   33.99610
1   11.04540   29.98100   34.23850
1   10.97590   29.95400   33.85560
1   10.49900   29.67500   33.56520
1   11.38010   29.61360   34.97070
1   11.13730   29.43220   34.79280
1   11.01890   29.31230   34.75000
1   10.88690   29.03620   34.58880
1   12.06540   29.42640   34.63180
1   12.11720   29.41860   34.48900
1   11.82860   29.35420   34.11340
1   11.68340   29.05970   33.97000
1   10.15660   29.62990   34.43080
1   10.30110   29.57500   34.27390
1   10.04470   29.71740   34.40250
1    9.76642   29.79780   34.18280
1   10.20780   29.41090   35.47780
1   10.56850   29.20480   35.35010
1   10.28590   29.25150   35.46480
1   10.00630   28.98700   35.28350
1    9.03960   29.72930   34.90170
1    9.41911   29.47110   34.99710
1    9.32624   29.64000   35.06240
1    9.56750   29.67520   35.08360
1   11.64220   31.45720   34.70140
1   11.97070   31.48390   34.89870
1   11.79100   31.43820   34.72720
1   12.10850   31.63160   35.35050
1   11.50490   30.70900   35.31670
1   11.37170   30.73690   34.89710
1   11.57500   30.48920   34.73360
1   11.72070   30.52990   34.73620
1   10.66350   30.85600   34.39810
1   10.35990   30.46490   34.32410
1   10.44080   30.76560   34.21550
1   10.15370   30.64790   34.11000
1   10.87330   31.49700   35.38970
1   10.78210   31.44820   35.11560
1   10.87000   31.17510   35.16400
1   10.85740   31.13140   35.24490
1   10.29900   31.87480   34.14260
1   10.79700   31.79780   34.19610
1   10.80880   31.81040   34.51410
1   10.87730   31.76420   34.49370
1   10.23780   30.36430   35.19760
1   10.59660   30.20150   35.23430
1   10.57310   30.07100   35.12390
1   10.86320   30.26920   35.02170
1   10.43190   30.20210    0.16859
1   10.60460   30.65740    0.06328
1   10.59090   30.69040   -0.04142
1   10.51160   30.88250   -0.21018
1   10.05180   31.36770   34.86730
1    9.98610   31.63850   34.90120
1    9.77071   31.44730   34.82180
1    9.62022   31.39730   35.03640
1   13.33760   28.58520   34.24420
1   13.26520   29.64560   34.34850
1   13.15510   29.52310   34.25140
1   13.09980   29.80460   34.28350
1   14.11390   29.82950   35.03590
1   14.15920   29.87540   35.11310
1   13.91320   29.61330   34.91540
1   13.76250   29.58740   34.83900
1   13.64090   30.05700    0.24378
1   13.38130   29.86740   -0.04190
1   13.57440   29.91910   -0.34850
1   13.40780   29.79100   -0.19050
1   12.81370   29.62520   35.25290
1   12.42080   29.69130   35.50070
1   12.29330   29.58650   35.22240
1   12.00660   29.89710   35.41530
1   12.05710   28.77520   35.38130
1   12.45960   28.51000   35.23610
1   12.62030   28.70580   35.43180
1   12.81900   28.84860   35.59930
1   12.95130   29.02530   34.74710
1   12.92690   29.14730   34.79520
1   12.84600   29.06930   34.90400
1   12.44400   28.73080   34.36950
1   13.57420   28.67190   35.50220
1   13.67920   28.87200   35.44680
1   13.82520   28.85130   35.17060
1   13.94720   28.74640   34.88480
1   11.90760   27.48130   35.70170
1   12.06960   27.66130   35.68460
1   12.16800   27.62560   35.66040
1   12.47980   27.72450   35.33230
1   13.39940   28.11180   35.66640
1   13.04350   27.77860   35.21010
1   12.92560   27.95350   35.53430
1   13.26280   27.93600   35.23610
1   13.15640   27.10010   34.90650
1   13.62890   27.14600   35.37870
1   13.73780   26.97660   35.57060
1   13.66400   27.26010   35.55920
1   13.94300   26.78250    0.54535
1   13.50430   26.99830    0.39455
1   13.66180   27.30280    0.35370
1   13.73370   27.47760    0.20034
1   12.78180   27.55420    0.19757
1   12.76810   27.54840    0.12511
1   12.82940   27.32890    0.21701
1   12.23920   27.61340    0.55759
1   13.24990   28.13760    0.80228
1   13.42300   27.91990    0.87076
1   12.99420   27.95230    1.18248
1   13.11910   27.88270    1.16231
1   13.88440   27.72750    2.04540
1   13.93750   27.98840    2.26231
1   13.79400   27.92930    2.20543
1   13.76890   28.07220    2.37304
1   13.23110   29.29590    0.59569
1   13.33930   29.12470    0.18823
1   13.20840   29.08500    0.22692
1   13.58250   28.52180    0.34874
1   12.44840   28.43940    0.33471
1   12.37360   28.47390    0.31448
1   12.30050   28.65510    0.39414
1   12.43690   28.67910    0.88818
1   11.64330   29.31340    0.90156
1   12.04890   29.33850    0.57941
1   12.52610   29.50240    0.21988
1   12.46510   29.48720    0.05413
1   13.17920   28.52370    1.81639
1   13.36930   28.61970    1.49825
1   13.30990   28.61620    1.68390
1   13.53010   28.89260    1.88455
1   13.77490   28.20700   36.09050
1   14.21470   28.37650   35.65270
1   14.47820   28.60330   35.65120
1   14.52480   28.51630   35.66950
1   14.66000   27.54640    0.01356
1   14.49110   27.56370   -0.16070
1   14.58930   27.41540   -0.41380
1   15.04010   27.50420   -0.28280
1   14.15560   27.51370    0.74294
1   14.16610   27.65140    1.14522
1   14.36570   27.46680    1.13246
1   14.28850   27.43120    1.30331
1   14.63110   28.64080    1.61731
1   14.33010   28.18880    1.65556
1   14.31830   28.48780    1.73280
1   14.08150   28.61130    1.20210
1   14.12260   28.95550    0.40235
1   14.08860   29.19060    0.13835
1   14.09040   29.34910   -0.00990
1   14.33760   29.34780   -0.25580
1   14.80950   29.66910    0.95130
1   14.62150   29.25020    1.05439
1   14.49450   29.22980    0.98125
1   14.79900   29.03280    0.96442
1   15.16030   28.15430    0.47076
1   14.81320   28.15710    0.51660
1   14.67630   28.16550    0.69034
1   14.52030   28.25660    0.63076
1   13.38770   30.46860   34.89380
1   13.51500   30.34030   35.32190
1   13.53130   30.47700   35.18080
1   13.81070   30.65030   35.01300
1   13.97120   31.21710   34.20480
1   14.00410   31.30240   34.13890
1   13.82880   31.44350   34.21110
1   13.84260   31.79880   34.30510
1   12.59040   30.08080   34.55530
1   12.47720   30.36170   34.60620
1   12.31380   30.31380   34.91600
1   12.63100   30.40300   35.25820
1   12.98660   31.96020   34.88770
1   12.81230   31.86670   34.77490
1   12.87410   31.59130   34.56130
1   12.88940   31.31180   34.82850
1   13.33520   30.90160   34.41360
1   13.57570   30.65210   34.25670
1   13.79730   30.51140   34.28860
1   13.80720   30.32060   34.02710
1   15.16110   31.73640   33.24050
1   15.04890   31.60310   33.23660
1   15.08360   31.62460   33.04440
1   15.44980   31.46710   33.01160
1   14.69480   30.83410   33.58960
1   14.70650   31.41560   33.66060
1   14.75920   31.65700   34.11720
1   14.70030   31.66290   34.07410
1   15.12800   31.73550   32.26350
1   15.33110   30.79330   32.31010
1   15.31500   30.79210   32.30370
1   15.31320   30.78050   32.39260
1   14.27650   31.02270   31.99210
1   14.31540   31.28940   32.33530
1   14.46970   31.19730   32.38890
1   14.50480   31.62580   32.54080
1   12.91960   31.22820   31.72530
1   13.28030   31.49020   31.71280
1   13.03340   31.33490   31.48930
1   13.13980   31.17380   31.54410
1   13.60240   33.24770   30.98060
1   13.46100   33.33310   31.05250
1   13.24060   33.64500   31.16100
1   13.37410   33.86470   30.98520
1   12.31240   33.92960   31.36620
1   12.39650   33.77060   31.32580
1   12.21550   33.66180   30.80450
1   12.40930   33.80640   30.89520
1   13.38350   32.10700   31.85950
1   13.64850   31.93140   31.48890
1   13.55470   32.04790   31.60710
1   13.87530   32.13270   31.05160
1   12.90320   33.67190   30.09960
1   13.20750   33.35830   30.12480
1   12.74900   31.92450   30.99950
1   12.62730   31.96070   30.85770
1   12.00450   32.58190   30.25910
1   12.08190   33.01970   30.37570
1   12.16330   32.95970   30.26930
1   12.41900   33.07920   30.09290
1   13.00310   32.28740   30.05400
1   13.02660   32.43700   30.31660
1   13.04630   32.47490   30.35750
1   13.13400   32.69580   30.44230
1   12.79900   32.96610   30.96080
1   12.66930   32.86230   31.44210
1   12.70850   32.74090   31.49920
1   12.79330   32.95440   31.83230
1   14.04660   32.92700   31.67680
1   13.87270   33.28660   31.77550
1   13.53920   33.24630   31.76010
1   13.63220   33.25450   31.92430
1   12.87310   32.10940   28.73130
1   12.92640   32.05450   28.70110
1   12.89420   32.40260   28.75500
1   13.35920   32.02090   28.98060
1   13.62410   33.15620   28.95670
1   13.44410   33.06240   29.17230
1   13.15660   33.02260   29.10490
1   13.06160   33.08200   29.52430
1   12.17500   32.82240   28.09670
1   12.28640   32.75650   28.27620
1   12.41070   33.03260   28.04810
1   12.87570   33.17070   28.00840
1   12.24360   32.81500   29.10130
1   12.03950   32.93200   29.27110
1   12.36410   32.45710   29.57880
1   12.47580   32.45840   29.44490
1   13.35860   31.80630   27.18210
1   13.22510   31.73500   27.50620
1   13.34560   31.30630   28.06520
1   13.55950   31.44020   28.20250
1   12.94270   30.75780   26.73510
1   13.24580   30.61920   27.25910
1   13.62820   30.59850   27.47190
1   13.53590   30.66810   27.28240
1   12.18310   31.88500   27.52320
1   12.47660   31.81020   27.16740
1   12.46430   31.70420   27.29000
1   12.20190   31.70380   26.98330
1   12.23830   30.49890   27.48950
1   12.34970   30.10570   27.19760
1   12.69540   30.19020   27.42720
1   12.70810   30.07170   27.44760
1   12.07190   30.33620   26.22880
1   11.97750   30.36110   26.37500
1   11.88140   30.40550   26.60910
1   11.44250   30.49690   26.47840
1   13.42170   29.52730   26.43490
1   13.73840   30.05100   26.59770
1   13.39560   30.14530   26.41510
1   13.77000   30.15810   26.58720
1   12.20440   29.31070   27.06850
1   12.03880   29.36220   27.28450
1   12.67180   29.22570   26.88260
1   12.52890   29.33660   26.65830
1   13.36360   28.44200   25.74340
1   13.58020   28.49340   26.57120
1   13.35970   28.32840   26.57100
1   13.44440   28.55640   26.47910
1   14.03070   28.20740   27.87500
1   13.32770   28.48740   27.70480
1   13.32970   28.65090   27.90090
1   13.28170   28.41250   27.73090
1   12.80560   28.85020   27.00850
1   12.67200   28.65420   27.07010
1   12.57720   28.35700   27.17380
1   12.16680   28.12200   26.99870
1   12.75350   29.87750   26.35430
1   12.47610   29.90120   26.11930
1   12.59670   29.91430   26.02440
1   12.92830   30.25040   25.70880
1   12.50750   28.53160   26.24760
1   12.48210   28.69070   26.05200
1   12.26080   28.49080   25.84730
1   12.11580   28.53980   25.97940
1   13.40820   29.49250   27.39260
1   13.58030   29.55220   27.42800
1   13.52390   29.48130   27.12300
1   14.21320   28.93680   27.14290
1   12.66540   27.71180   25.95700
1   12.90340   27.61620   26.15350
1   12.83360   27.70710   26.03440
1   13.10440   27.64170   26.09390
1   12.77970   26.99140   26.68830
1   13.26870   26.19360   27.54450
1   13.02520   26.43600   27.63030
1   13.11350   26.38530   27.43710
1   12.58070   27.25980   27.54880
1   13.03290   27.29750   27.54320
1   13.13850   27.96360   27.77150
1   13.12860   27.64230   27.21440
1   12.06400   26.16360   28.07740
1   13.45160   27.21360   27.48740
1   13.88630   27.07280   27.56690
1   14.02230   27.01480   27.53900
1   13.89100   27.34700   26.15870
1   13.90270   27.32080   26.67530
1   13.65230   27.58350   26.60450
1   13.75580   27.44500   26.80540
1   13.53340   26.41720   26.72580
1   13.44810   26.55670   26.72770
1   13.50460   26.60150   26.63610
1   13.31710   26.56970   26.03560
1   14.55490   24.80750   27.39480
1   13.90800   25.49860   27.54700
1   13.75060   25.70910   27.42230
1   13.63740   25.54610   27.47700
1   13.33330   24.76880   29.17110
1   13.20620   25.27970   29.59540
1   13.12230   25.04980   29.90420
1   12.99120   25.13600   30.28970
1   12.47910   25.80010   28.29830
1   12.53820   25.64920   28.01800
1   12.89090   25.08340   28.04070
1   12.81630   24.98240   28.02390
1   13.33610   25.78360   28.35770
1   13.16990   25.81950   28.68760
1   13.22260   25.79280   28.37560
1   12.97980   26.03850   28.72020
1   12.43060   24.29590   29.89460
1   12.41160   24.36280   29.92470
1   12.37650   23.90270   29.61220
1   12.08410   23.83430   29.79160
1   12.09060   24.96440   28.61260
1   12.39940   25.06900   29.13130
1   12.42310   25.01660   29.06010
1   12.43950   24.96190   29.29070
1   12.31950   25.84960   29.10550
1   12.24470   25.83710   29.34540
1   11.67240   25.85470   29.17730
1   11.79360   25.67530   29.06760
1   10.75190   23.50160   32.09810
1   10.62600   23.28310   32.02400
1   10.46680   23.46120   31.81510
1   10.46260   22.90700   31.79810
1   11.48150   23.22290   31.19040
1   11.60220   23.58280   31.27810
1   11.78320   23.74370   31.47240
1   11.69410   23.78640   31.40750
1   10.46310   23.92920   30.75600
1   10.76840   24.00460   31.17220
1   10.72030   23.78270   31.09610
1   10.79060   23.92320   31.43040
1   11.16830   23.58720   30.40450
1   11.43540   23.83530   30.24200
1   11.24800   23.84610   30.44880
1   11.66120   24.24670   30.33720
1    9.43328   22.83910   32.68550
1    9.78033   22.84170   32.68130
1   10.00040   22.73370   32.66000
1   10.01490   22.84220   32.81260