4
Atoms. Timestep: 4300
1    8.01604    3.35356   20.72950
1    7.90035    3.37262   20.49380
1    7.98475    3.34241   20.39440
1    8.12282    3.58321   20.21290
