4
Atoms. Timestep: 4300
1   13.99920   29.48590   29.63960
1   14.32890   29.49540   29.29870
1   14.24880   29.86150   29.04980
1   14.44250   29.63650   29.08860
