4
Atoms. Timestep: 4300
1   10.57560   20.83450   34.11620
1   10.63580   21.34520   33.95480
1   10.45140   21.62110   34.06640
1   10.70640   21.58970   33.90770
