38
139968
368
125984
7
81
1
74
-66
LAMMPS Description

81 atoms
6 bonds

3 atom types
2 bond types

0.000000e+00 3.000000e+00 xlo xhi
0.000000e+00 3.000000e+00 ylo yhi
0.000000e+00 3.000000e+00 zlo zhi

Atoms

1 1 1.511211e+00 1.917300e+00 1.065534e+00 1
2 1 1.511210e+00 1.909094e+00 1.165197e+00 1
3 2 1.511209e+00 1.900887e+00 1.264860e+00 1
4 2 1.511208e+00 1.892681e+00 1.364523e+00 1
5 2 1.511207e+00 1.884475e+00 1.464185e+00 1
6 1 1.511207e+00 1.876268e+00 1.563848e+00 1
7 1 1.511206e+00 1.868062e+00 1.663511e+00 1
0 0 0.000000e+00 0.000000e+00 0.000000e+00 0
0 0 0.000000e+00 0.000000e+00 0.000000e+00 0
0 0 0.000000e+00 0.000000e+00 0.000000e+00 0
0 0 0.000000e+00 0.000000e+00 0.000000e+00 0
0 0 0.000000e+00 0.000000e+00 0.000000e+00 0
0 0 0.000000e+00 0.000000e+00 0.000000e+00 0
0 0 0.000000e+00 0.000000e+00 0.000000e+00 0
0 0 0.000000e+00 0.000000e+00 0.000000e+00 0
0 0 0.000000e+00 0.000000e+00 0.000000e+00 0
0 0 0.000000e+00 0.000000e+00 0.000000e+00 0
0 0 0.000000e+00 0.000000e+00 0.000000e+00 0
0 0 0.000000e+00 0.000000e+00 0.000000e+00 0
0 0 0.000000e+00 0.000000e+00 0.000000e+00 0
0 0 0.000000e+00 0.000000e+00 0.000000e+00 0
0 0 0.000000e+00 0.000000e+00 0.000000e+00 0
0 0 0.000000e+00 0.000000e+00 0.000000e+00 0
0 0 0.000000e+00 0.000000e+00 0.000000e+00 0
0 0 0.000000e+00 0.000000e+00 0.000000e+00 0
0 0 0.000000e+00 0.000000e+00 0.000000e+00 0
0 0 0.000000e+00 0.000000e+00 0.000000e+00 0
0 0 0.000000e+00 0.000000e+00 0.000000e+00 0
0 0 0.000000e+00 0.000000e+00 0.000000e+00 0
0 0 0.000000e+00 0.000000e+00 0.000000e+00 0
0 0 0.000000e+00 0.000000e+00 0.000000e+00 0
0 0 0.000000e+00 0.000000e+00 0.000000e+00 0
0 0 0.000000e+00 0.000000e+00 0.000000e+00 0
0 0 0.000000e+00 0.000000e+00 0.000000e+00 0
0 0 0.000000e+00 0.000000e+00 0.000000e+00 0
0 0 0.000000e+00 0.000000e+00 0.000000e+00 0
0 0 0.000000e+00 0.000000e+00 0.000000e+00 0
0 0 0.000000e+00 0.000000e+00 0.000000e+00 0
0 0 0.000000e+00 0.000000e+00 0.000000e+00 0
0 0 0.000000e+00 0.000000e+00 0.000000e+00 0
0 0 0.000000e+00 0.000000e+00 0.000000e+00 0
0 0 0.000000e+00 0.000000e+00 0.000000e+00 0
0 0 0.000000e+00 0.000000e+00 0.000000e+00 0
0 0 0.000000e+00 0.000000e+00 0.000000e+00 0
0 0 0.000000e+00 0.000000e+00 0.000000e+00 0
0 0 0.000000e+00 0.000000e+00 0.000000e+00 0
0 0 0.000000e+00 0.000000e+00 0.000000e+00 0
0 0 0.000000e+00 0.000000e+00 0.000000e+00 0
0 0 0.000000e+00 0.000000e+00 0.000000e+00 0
0 0 0.000000e+00 0.000000e+00 0.000000e+00 0
0 0 0.000000e+00 0.000000e+00 0.000000e+00 0
0 0 0.000000e+00 0.000000e+00 0.000000e+00 0
0 0 0.000000e+00 0.000000e+00 0.000000e+00 0
0 0 0.000000e+00 0.000000e+00 0.000000e+00 0
0 0 0.000000e+00 0.000000e+00 0.000000e+00 0
0 0 0.000000e+00 0.000000e+00 0.000000e+00 0
0 0 0.000000e+00 0.000000e+00 0.000000e+00 0
0 0 0.000000e+00 0.000000e+00 0.000000e+00 0
0 0 0.000000e+00 0.000000e+00 0.000000e+00 0
0 0 0.000000e+00 0.000000e+00 0.000000e+00 0
0 0 0.000000e+00 0.000000e+00 0.000000e+00 0
0 0 0.000000e+00 0.000000e+00 0.000000e+00 0
0 0 0.000000e+00 0.000000e+00 0.000000e+00 0
0 0 0.000000e+00 0.000000e+00 0.000000e+00 0
0 0 0.000000e+00 0.000000e+00 0.000000e+00 0
0 0 0.000000e+00 0.000000e+00 0.000000e+00 0
0 0 0.000000e+00 0.000000e+00 0.000000e+00 0
0 0 0.000000e+00 0.000000e+00 0.000000e+00 0
0 0 0.000000e+00 0.000000e+00 0.000000e+00 0
0 0 0.000000e+00 0.000000e+00 0.000000e+00 0
0 0 0.000000e+00 0.000000e+00 0.000000e+00 0
0 0 0.000000e+00 0.000000e+00 0.000000e+00 0
0 0 0.000000e+00 0.000000e+00 0.000000e+00 0
0 0 0.000000e+00 0.000000e+00 0.000000e+00 0
0 0 0.000000e+00 0.000000e+00 0.000000e+00 0
0 0 0.000000e+00 0.000000e+00 0.000000e+00 0
0 0 0.000000e+00 0.000000e+00 0.000000e+00 0
0 0 0.000000e+00 0.000000e+00 0.000000e+00 0
0 0 0.000000e+00 0.000000e+00 0.000000e+00 0
0 0 0.000000e+00 0.000000e+00 0.000000e+00 0
0 0 0.000000e+00 0.000000e+00 0.000000e+00 0

Bonds

1 1 1 2
2 2 2 3
3 2 3 4
4 2 4 5
5 2 5 6
6 1 6 7
