13984
Atoms. Timestep: 6001000
1 13.8844 27.7275 2.0454
1 13.9375 27.9884 2.26231
1 13.794 27.9293 2.20543
1 13.7689 28.0722 2.37304
2 13.6577 28.2449 2.6516
3 13.3158 28.3361 2.61231
2 13.4874 28.3489 2.87616
2 13.277 28.6125 3.10016
3 13.177 28.6076 3.05308
3 13.4108 28.6677 3.32899
3 13.8345 28.7264 3.55772
2 14.0735 28.8651 3.55494
2 13.8457 29.0984 3.71269
2 13.5558 29.3827 3.88187
3 13.5547 29.2427 3.72421
2 13.409 29.6284 3.83564
2 13.1746 29.6814 3.81692
2 13.0879 29.8566 3.65368
3 12.8613 30.1101 3.45111
2 12.8575 30.2559 3.36175
2 12.7277 30.1289 3.22
3 12.6469 29.9932 3.2829
2 12.7606 29.8271 2.91215
2 12.7847 29.5652 2.73103
2 12.7871 29.6046 2.61041
2 12.7643 29.5119 2.45599
3 12.8116 29.5178 2.1307
2 12.9589 29.5762 1.89469
2 12.8557 29.5911 1.81785
3 12.9071 29.6378 1.63171
2 12.7068 29.6075 1.35213
3 12.8411 29.6068 1.08758
2 13.0643 29.5357 0.973801
2 13.1763 29.3647 0.959521
1 13.2311 29.2959 0.595692
1 13.3393 29.1247 0.188231
1 13.2084 29.085 0.226921
1 13.5825 28.5218 0.348741
1 5.22487 31.8919 31.3014
1 4.9916 31.2782 31.7612
1 5.00266 31.3191 31.6146
1 4.79731 31.135 31.9062
2 4.75629 30.9459 32.0004
3 4.63623 30.7978 32.1648
2 4.40729 30.732 32.2012
2 4.19317 30.5263 32.1358
2 3.94429 30.5061 31.9276
3 3.96151 30.4288 31.9532
2 3.91343 30.2038 31.9558
3 3.78007 30.0984 31.9262
2 3.82166 29.8714 32.0476
3 3.76547 29.6822 32.1907
3 3.66812 29.6627 32.4592
3 3.85014 29.4647 32.521
2 3.85005 29.5395 32.8068
3 3.54871 29.5381 33.0586
2 3.45872 29.3782 33.1572
2 3.2861 29.1959 33.1904
3 3.56843 29.2527 33.4683
2 3.39971 29.207 33.5618
3 3.44405 28.9857 33.6905
2 3.54267 28.8615 34.0265
2 3.71417 28.8631 34.0898
2 3.96226 28.7862 34.0904
2 4.20869 28.8252 34.2218
2 4.26435 28.477 34.1655
2 4.40538 28.3802 34.5487
2 4.3172 28.3812 34.837
2 4.2999 28.1836 34.9012
3 4.55281 28.2939 34.998
2 4.7122 28.1469 35.1565
2 4.79181 28.0772 35.3136
1 4.85929 27.991 35.6764
1 4.90077 28.4123 0.0362738
1 4.95526 28.4865 36.027
1 4.761 28.384 0.0688528
1 34.6396 29.5697 30.0145
1 34.6491 29.2843 29.7548
1 35.0059 29.2386 29.8622
1 35.1684 29.1067 29.8902
2 35.5492 29.2272 29.9738
2 35.8257 28.9634 30.0986
3 -0.0321919 28.8712 30.235
2 0.205526 28.8362 30.1188
2 0.372782 28.8124 30.1352
3 0.698552 28.7639 30.1963
3 0.849912 28.7849 30.1858
2 1.12857 28.6189 30.0325
3 1.17899 28.7855 29.9378
2 1.45738 28.872 29.7272
3 1.40821 28.9678 29.5244
2 1.51007 29.1581 29.3786
2 1.57537 29.242 29.2487
2 1.47287 29.2036 28.9317
3 1.3257 29.0876 28.7171
2 1.25933 29.0924 28.6166
2 1.28322 29.1673 28.5457
3 1.48452 29.2102 28.4105
3 1.78789 29.5281 28.2626
3 1.65755 29.596 28.0843
2 1.66297 29.6835 27.9523
3 1.77485 29.9124 28.0328
2 1.62193 29.8453 27.7065
2 1.44533 29.9696 27.4612
2 1.2711 29.7399 27.2639
2 1.19967 29.7648 27.316
2 1.04194 29.8981 27.2283
2 0.949985 29.6983 26.9702
2 0.745035 29.9419 26.744
2 0.54164 29.9764 26.689
1 0.352574 30.1296 26.4452
1 0.374998 30.1483 26.3815
1 0.188956 30.3405 25.8716
1 0.073682 30.135 25.739
1 4.01756 30.6804 24.1565
1 4.23371 30.4981 24.2621
1 4.29492 30.591 23.9308
1 4.0244 30.1826 23.9175
2 3.90825 30.0403 23.6577
2 3.89924 29.8167 23.6632
3 3.85769 29.7024 23.6988
3 3.92958 29.4088 23.5424
2 3.9439 29.052 23.6389
2 3.83813 28.9718 23.6435
2 3.77393 28.78 23.478
2 3.70568 28.6279 23.2216
3 3.54413 28.4424 23.3246
3 3.56995 28.2649 23.1669
2 3.12103 28.197 22.8481
2 3.20433 28.2749 22.6927
2 3.15564 28.3768 22.6668
2 2.85211 28.336 22.5146
3 2.92109 28.3904 22.4392
2 2.61183 28.4169 22.4673
3 2.37253 28.5804 22.2891
2 2.16497 28.8241 22.2238
3 2.09969 28.7558 22.1593
3 1.96689 28.8937 21.8983
2 1.68136 29.2778 21.901
3 1.68007 29.3999 22.0364
2 1.65954 29.5815 21.9067
2 1.7955 29.8939 21.9343
3 1.85761 29.9634 22.1859
2 1.98789 30.1522 22.1953
2 1.91539 30.318 22.1944
2 2.2082 30.48 22.5045
2 2.31079 30.6311 22.8456
2 2.32213 30.3788 22.8672
1 2.17748 30.5189 23.1679
1 2.18255 30.3859 23.4983
1 2.21982 30.6246 23.7598
1 2.16068 30.4735 23.8585
1 6.35365 24.3024 28.4561
1 6.55488 24.5061 27.946
1 6.54424 24.2719 28.5778
1 6.86224 24.564 28.6713
3 7.18028 24.6226 28.6812
3 7.16044 24.6413 28.6357
3 7.46734 24.6431 28.4931
2 7.68866 24.6924 28.5644
2 7.84845 24.7403 28.4689
2 7.98885 24.9228 28.5731
2 8.16783 24.9227 28.5593
2 8.32158 24.9079 28.3324
2 8.6229 25.0177 28.3088
2 8.82654 25.0046 28.4604
3 8.96286 25.0612 28.4392
3 9.0964 25.1105 28.5773
2 9.30882 25.0952 28.431
2 9.40211 24.8584 28.5232
2 9.67335 24.8922 28.8462
2 9.90407 25.0256 28.8355
2 10.0455 24.9792 28.9317
2 10.1211 25.1665 29.1454
3 10.0961 25.1167 29.4616
3 10.3532 25.2483 29.6913
2 10.3854 25.4146 29.7975
3 10.4981 25.6263 29.8381
2 10.3617 25.8127 29.6509
3 10.257 26.1051 29.8311
2 10.1227 26.1279 29.7658
2 9.91605 26.0257 30.0291
2 9.85845 25.9002 30.3199
3 9.67751 25.671 30.54
2 9.71253 25.638 30.5567
2 9.75729 25.3145 30.7091
1 9.87407 25.238 30.7857
1 10.5678 24.7099 31.1238
1 10.4114 24.926 31.0951
1 10.3236 24.6964 31.2232
1 7.44583 23.0705 27.5049
1 7.64368 23.0446 27.302
1 7.6601 23.0312 27.5626
1 7.88966 22.5873 27.4515
3 8.01982 22.2751 27.4572
2 8.09341 22.2119 27.5319
2 8.31783 22.104 27.6388
2 8.51612 22.119 27.8037
2 8.61607 22.1198 28.0906
3 8.66132 21.8334 28.1291
2 8.54596 21.7673 28.336
3 8.38726 21.3997 28.2967
2 8.21778 21.2258 28.2692
2 8.1555 20.9994 28.1334
2 7.90125 20.9947 28.1765
3 7.79432 21.074 27.9559
3 7.48714 20.9842 27.7347
2 7.38834 20.7001 27.7179
3 7.0108 20.8045 27.6437
2 6.82232 20.9178 27.4311
2 6.80375 21.1526 27.4718
3 6.65567 21.3511 27.5724
2 6.52578 21.5505 27.6219
2 6.29472 21.6343 27.6639
3 6.17871 21.7468 27.7058
2 5.91855 21.815 27.7638
2 5.68319 21.9561 27.9374
3 5.50304 21.9478 27.7376
2 5.38575 21.9685 27.4107
3 5.51448 21.9282 27.1602
2 5.53265 21.8346 27.09
2 5.63092 21.9119 26.7656
2 5.80497 22.1957 26.655
2 5.9024 22.2733 26.6665
1 5.98967 22.3622 26.7816
1 5.61924 22.9053 27.4483
1 5.49956 22.8637 27.4316
1 5.54687 22.9767 27.492
1 2.08085 28.6355 35.6317
1 1.95042 28.9589 36.1595
1 1.87587 28.7206 0.0772585
1 2.12781 29.0452 0.674505
2 2.12958 29.168 0.730792
2 2.2114 29.0863 0.95688
3 2.34516 29.2428 1.15878
2 2.43397 29.4522 1.35377
2 2.53063 29.4994 1.4512
2 2.75148 29.8063 1.49975
3 2.89273 30.0082 1.53282
2 2.98508 30.1302 1.6554
2 2.74755 30.1973 1.89938
2 2.892 30.4786 1.87963
2 2.64485 30.6042 1.96858
2 2.51469 30.7612 2.15409
2 2.37653 30.8937 2.24047
3 2.27684 31.0081 2.28562
3 2.141 31.1573 2.19638
3 1.9119 31.3497 2.09035
2 1.87078 31.5373 1.99377
3 1.94278 31.6042 1.8612
3 1.9265 31.6886 1.4359
2 1.98227 31.5472 1.46458
2 2.32802 31.5713 1.38831
3 2.23866 31.4123 1.15533
2 2.4508 31.1916 1.19057
3 2.44183 31.0664 0.996058
2 2.09078 30.9122 1.02908
3 1.80671 30.8111 0.83216
2 1.85952 30.7623 0.513833
2 1.6735 30.6017 0.442982
2 1.57208 30.3938 0.565157
2 1.7019 30.1509 0.499738
1 1.59781 30.0283 0.328393
1 1.37128 29.7372 35.9633
1 1.14099 29.6945 0.130684
1 1.40586 29.588 36.0081
1 13.3442 29.1304 25.9581
1 13.3191 29.1761 25.723
1 12.6965 29.2679 25.7059
1 12.914 29.0262 25.2559
2 12.7352 29.1812 25.1363
2 12.5352 29.2619 25.1325
2 12.4634 29.3194 24.7985
2 12.4806 29.4291 24.6429
2 12.4133 29.3978 24.4773
2 12.2623 29.2023 24.3687
3 12.1964 29.2632 24.3356
3 11.8723 29.0585 24.2332
3 11.4676 29.1446 24.0878
2 11.2001 29.2476 24.2243
2 11.3009 29.218 24.2867
2 11.1977 29.1591 24.3142
3 11.0138 29.1682 24.5326
2 10.7405 28.8664 24.6672
3 10.8513 28.9249 24.7803
2 10.9852 28.9986 24.9939
2 11.1135 28.9807 25.2348
2 11.4484 28.7535 25.2009
2 11.4642 28.6962 25.1632
2 11.5852 28.476 24.947
2 11.9386 28.3537 24.7587
3 11.9979 28.3981 24.9971
2 12.2271 28.4702 24.6925
3 12.2404 28.2294 24.9495
2 12.5846 28.2266 24.9739
2 12.5941 28.0313 25.0905
2 12.5687 27.7869 25.1431
2 12.5934 27.7481 25.0991
3 12.5066 27.5455 25.2341
3 12.483 27.5802 25.5502
1 12.6654 27.7118 25.957
1 12.9034 27.6162 26.1535
1 12.8336 27.7071 26.0344
1 13.1044 27.6417 26.0939
1 3.21721 34.5525 31.7747
1 3.30836 34.6316 31.8062
1 3.37482 34.6957 31.9444
1 3.20529 34.5745 32.2826
2 3.15619 34.5046 32.7771
2 3.32215 34.6215 32.8243
3 3.38341 34.6781 32.9433
3 3.53094 34.7465 33.0676
2 3.47126 34.7815 33.3063
3 3.29057 34.8222 33.38
3 3.36235 34.7926 33.6964
2 3.12351 34.9128 33.7637
3 3.09072 35.2645 33.7859
3 3.03903 35.431 33.7982
2 3.24291 35.7546 33.7608
2 3.50839 35.757 33.7964
3 3.67203 35.8809 33.8343
2 3.86452 35.7294 34.0729
2 3.94957 35.6977 33.772
3 4.29422 35.5959 33.4826
2 4.41844 35.5941 33.3901
2 4.48151 35.5583 33.5333
2 4.6747 35.4907 33.2262
2 4.80144 35.5146 32.8863
3 4.88485 35.7384 32.8755
2 4.87626 35.9425 32.6915
2 4.77718 35.9905 32.6315
3 4.68076 0.236954 32.5812
2 4.4392 0.355919 32.287
2 4.2735 0.27916 32.0807
2 4.20611 0.209134 32.0321
2 4.1414 0.334958 31.7906
2 4.06201 0.275338 31.8467
2 3.99808 0.403628 31.309
1 3.8176 0.537524 31.1235
1 3.74783 0.194087 31.0904
1 3.74478 0.163461 31.0217
1 3.4547 35.8364 30.7458
1 12.4786 28.523 28.5219
1 12.5562 28.495 28.4548
1 12.2944 28.4778 28.0799
1 11.9879 28.5971 27.819
2 11.6414 28.4812 27.949
3 11.6342 28.4972 28.0882
2 11.5148 28.586 28.1419
2 11.2978 28.3344 28.1747
2 10.953 28.3346 28.1362
2 10.7965 28.1913 28.0962
3 10.7412 28.0156 28.2953
2 10.4631 28.1908 28.2226
3 10.1701 28.0198 27.8877
2 10.105 27.7812 27.9019
3 10.0909 27.5691 27.7562
3 10.0332 27.5909 27.6786
2 9.82118 27.5387 27.4697
2 9.68674 27.7167 27.2001
2 9.79578 27.6824 27.021
3 9.5744 27.6309 26.8544
2 9.75089 27.8038 26.6027
3 9.71591 27.6647 26.3985
3 9.55634 27.6224 26.3091
2 9.51847 27.3996 26.0334
2 9.47712 26.9825 25.9775
2 9.45544 27.0337 25.8997
2 9.18118 26.8631 25.8649
2 9.16701 26.5355 25.7317
2 8.96703 26.2456 25.8208
2 8.92882 26.0482 25.8951
2 9.00791 25.8615 26.0281
2 8.9458 25.6359 25.916
2 8.69101 25.3074 26.0909
3 8.58383 25.3049 26.2324
1 8.44265 25.0009 26.1826
1 7.83709 24.6902 26.5139
1 8.06701 24.7543 26.5515
1 7.75254 24.7301 26.3968
1 11.3632 24.4734 31.0929
1 11.3519 24.1797 31.7889
1 11.3518 24.7467 31.4342
1 11.3966 24.8632 31.7235
2 11.3064 24.9721 32.0812
3 11.2429 25.1769 32.2934
3 11.1491 25.3752 32.1325
3 11.1004 25.6249 32.3027
3 10.966 25.8323 32.3821
2 10.961 25.9051 32.187
2 10.9566 26.1949 32.3893
2 10.798 26.2785 32.0876
2 10.7233 26.441 31.9271
2 10.5497 26.5892 32.0107
2 10.2699 26.6998 31.898
2 10.0762 26.7596 31.9556
3 9.96588 26.8517 31.918
2 9.62981 26.9191 31.987
2 9.29144 26.7858 31.8892
3 9.2325 27.0161 31.6972
2 9.12867 27.0759 31.7087
2 8.94034 27.3759 31.5756
2 8.61873 27.1727 31.352
2 8.53834 27.1636 31.1257
2 8.1573 27.1907 31.1947
3 8.15167 27.3569 31.2214
3 8.02671 27.3935 30.8042
2 7.88991 27.2626 30.5064
2 7.91534 27.2176 30.3886
2 7.92033 27.082 30.3817
2 7.64162 27.2556 30.3158
3 7.34996 27.0233 30.3355
3 7.22849 27.2678 30.1446
2 6.91615 27.2534 30.2335
1 6.52083 27.128 30.3007
1 6.18524 26.9354 30.0657
1 6.08356 27.0231 29.9798
1 6.10359 26.9953 30.2178
1 35.0239 31.1832 31.8923
1 34.8143 31.3091 32.0174
1 34.7579 31.2952 31.9043
1 34.4736 31.839 31.7178
3 34.651 31.9985 31.9823
3 34.6863 32.1695 31.7592
3 34.6594 32.3555 31.6397
3 34.889 32.6824 31.7535
2 34.6709 32.756 31.9388
2 34.7517 33.041 31.9833
2 34.8673 33.1245 32.1403
2 35.081 33.6252 32.3543
2 35.1256 33.6108 32.1363
2 35.0337 33.7991 32.2515
2 34.8668 33.98 32.2789
3 34.8644 34.3833 32.2019
2 34.7638 34.4167 32.5354
3 34.8222 34.5048 32.5877
2 35.0144 34.7421 32.172
2 35.3542 34.9234 32.1772
3 35.2461 35.215 31.9962
2 35.2794 35.266 31.9392
2 35.3745 35.3428 32.3445
2 35.6766 35.5578 32.0437
3 0.0536264 35.4434 31.8879
3 0.430238 35.2795 31.8064
3 0.449452 35.297 31.9977
2 0.514099 35.2796 32.1499
2 0.795117 35.2917 32.009
2 1.02985 35.0153 31.8618
2 1.2685 35.0354 31.8245
2 1.55615 34.9673 31.7001
2 1.80478 35.0092 31.917
2 2.01696 34.9571 31.8956
1 2.19755 35.0252 31.5591
1 2.59597 35.0011 31.5365
1 2.63809 35.0038 31.2716
1 2.81228 34.929 31.2793
1 10.295 0.914531 26.035
1 10.0896 0.919171 26.306
1 9.96308 1.19671 26.3403
1 10.2217 1.25596 26.6877
2 10.2811 1.32873 26.8958
3 10.4843 1.52991 26.9447
3 10.7449 1.62056 27.2041
3 10.7745 1.73784 27.5542
2 10.9979 1.83864 27.5243
2 11.1434 1.87325 27.6392
2 10.994 2.17003 28.0316
2 11.0952 2.18673 28.2032
2 11.1865 2.21294 28.3887
2 11.1643 2.11448 28.5744
2 11.0751 2.09345 28.7508
2 10.9322 2.08163 29.0597
2 10.7837 1.93518 29.2312
3 10.7477 1.66312 29.3591
2 10.6506 1.41232 29.2343
2 10.5169 1.22524 29.2174
3 10.5661 1.27387 29.2993
3 10.3257 0.953992 29.5155
2 10.097 0.689639 29.4927
2 10.2331 0.58917 29.5186
2 10.2374 0.428741 29.398
2 10.4375 0.237154 29.4751
3 10.254 0.0547266 29.4144
3 10.1636 35.779 29.3715
3 9.83055 35.6691 29.2256
2 9.89413 35.7219 29.1641
3 9.98186 35.736 29.0187
2 10.0444 35.5829 28.7129
2 10.2497 35.6848 28.435
2 10.1633 35.5696 28.4208
1 10.175 35.5434 28.2178
1 10.0947 35.6085 27.9213
1 9.93422 35.4967 27.803
1 10.1104 35.8898 27.6067
1 13.6024 33.2477 30.9806
1 13.461 33.3331 31.0525
1 13.2406 33.645 31.161
1 13.3741 33.8647 30.9852
3 13.3963 34.2584 31.0501
3 13.5245 34.3759 31.0616
3 13.3463 34.5647 31.1557
2 13.159 34.6522 31.2055
3 13.0508 34.81 31.3607
2 12.9693 35.147 31.3622
2 12.982 35.2669 31.1392
3 13.074 35.2313 30.9928
2 13.0673 35.4566 31.0689
3 13.1569 35.7179 30.8507
2 13.2154 35.9891 30.9268
2 13.4325 -0.0511917 31.0539
3 13.6121 35.993 31.3609
3 13.6882 -0.0192852 31.3681
2 13.9366 35.996 31.5535
2 13.797 35.6803 31.7871
2 13.6622 35.7978 31.9415
2 13.4055 35.5334 32.0501
2 13.4363 35.4059 32.2876
2 13.3898 35.3083 32.3723
2 13.3868 35.0562 32.3332
2 13.4878 34.7186 32.3709
2 13.3447 34.748 32.1163
2 13.313 34.4971 32.1901
3 13.1841 34.173 32.2436
2 12.9983 34.0487 32.2147
2 12.7734 34.0386 32.2722
2 12.7112 33.9229 32.1471
2 12.6853 33.9016 31.9363
2 12.318 34.1284 31.5271
1 12.3124 33.9296 31.3662
1 12.3965 33.7706 31.3258
1 12.2155 33.6618 30.8045
1 12.4093 33.8064 30.8952
1 34.9542 28.6369 30.42
1 34.7276 28.378 30.2953
1 34.6763 28.7901 30.4552
1 34.8553 27.981 30.2494
2 34.9188 27.7523 30.3699
3 34.7769 27.4713 30.2883
3 34.7909 27.1961 30.4159
3 34.5938 27.0585 30.5322
2 34.4179 26.7804 30.6036
2 34.3377 26.6923 30.5992
3 34.3084 26.8383 30.6416
2 34.1357 26.6275 30.5272
2 33.8913 26.3412 30.5531
3 33.7377 26.0875 30.3729
2 33.687 25.8931 30.3437
2 33.9476 25.7131 30.4141
2 34.1844 25.4692 30.4342
2 34.3501 25.3286 30.6016
3 34.2001 25.2062 30.6931
2 34.0578 25.0428 30.9608
2 34.3837 24.9889 31.3285
2 34.5611 24.7829 31.3796
2 34.6131 24.5104 31.3862
2 34.9896 24.6953 31.4598
3 34.9517 24.6072 31.4954
2 35.4409 24.349 31.4897
2 35.4145 24.3371 31.5322
3 35.7037 24.2333 31.3455
3 35.713 24.2355 31.2457
2 36.1456 23.9877 30.9921
2 0.158078 24.0537 31.0339
2 0.37644 24.0164 31.0027
3 0.395716 23.8216 31.0051
2 0.640015 23.5735 30.7647
1 1.00806 23.6426 30.8265
1 1.14832 23.6879 30.6737
1 1.34891 23.5697 30.8554
1 1.37151 23.7862 30.88
1 3.05675 35.7664 26.6051
1 3.28559 35.6584 27.0179
1 3.31494 35.5198 26.8052
1 3.33352 35.4249 26.738
2 3.29395 35.2458 26.8761
3 3.16012 34.872 26.7791
3 3.17515 34.7165 26.7203
3 3.09722 34.5143 26.8376
2 3.09736 34.3567 26.682
2 2.90771 34.1007 26.8724
2 2.70402 33.984 26.7273
3 2.61111 33.9466 26.7806
2 2.68766 33.8883 27.0822
3 2.28076 33.7238 27.0196
2 2.2906 33.487 27.0306
3 2.3761 33.4229 27.295
2 2.25326 33.2142 27.2751
2 2.32828 33.2489 27.5199
2 2.23978 33.0731 27.6836
3 2.25979 32.6804 27.6964
3 2.12993 32.503 27.7259
2 2.21782 32.4375 27.8317
2 2.13683 31.9984 27.4806
3 2.05519 31.9773 27.2576
2 2.16998 31.8684 27.0414
2 2.08612 31.8604 27.1184
2 1.66749 31.7039 26.7676
3 1.5344 31.9057 26.5931
2 1.50685 31.9656 26.7014
2 1.23785 31.9264 26.6572
2 0.964681 31.8301 26.935
2 0.789134 31.7468 26.9046
2 0.780455 31.6808 26.6679
2 0.680745 31.3568 26.9073
1 0.471763 31.4686 26.7544
1 0.0449435 31.0224 26.725
1 0.0363266 30.8161 27.0056
1 36.2165 30.7419 26.7826
1 3.30678 23.437 29.3958
1 3.47296 23.0053 29.2182
1 3.20821 23.048 29.4443
1 3.32362 22.8104 29.0188
2 3.22102 22.4326 28.8076
2 3.18009 22.2951 28.6439
2 2.96645 22.094 28.7837
3 2.79799 21.7217 28.7622
3 2.66204 21.5195 28.9536
2 2.47099 21.5225 28.939
3 2.38272 21.4919 28.8464
2 2.14058 21.3568 28.9839
3 1.82881 21.3922 29.1206
2 1.64462 21.4582 29.1564
2 1.56415 21.5432 29.1183
2 1.41344 21.6136 28.9745
2 1.23808 21.6216 28.868
2 1.05667 21.6157 28.6837
2 0.756087 21.6273 28.7862
2 0.716478 21.5683 28.881
2 0.54728 21.5885 28.8801
3 0.393194 21.5721 29.3114
3 0.362188 21.426 29.4379
3 0.485621 21.4785 29.6602
2 0.527773 21.4828 29.8182
2 0.565806 21.5032 29.9176
2 0.769349 21.4665 30.0759
3 0.877569 21.4297 30.499
3 1.03193 21.2109 30.6837
3 1.24674 21.1941 30.7869
2 1.17838 21.4208 30.9385
2 1.38962 21.454 31.0601
2 1.72724 21.4014 31.1708
2 1.81488 21.206 31.3339
1 2.06278 21.5197 31.2454
1 1.98876 22.3096 31.1864
1 2.00354 22.2613 31.3855
1 2.19498 22.4948 31.4451
1 1.80307 22.7923 30.7073
1 1.61612 23.0242 30.5664
1 1.45247 22.6404 30.7528
1 1.15217 22.6658 30.6784
3 0.867753 22.5998 30.684
2 0.769938 22.5083 30.786
2 0.625407 22.5237 30.699
3 0.353256 22.3569 30.6271
2 0.101798 22.3352 30.6445
2 -0.138732 22.2714 30.5286
2 35.6999 22.0729 30.2756
2 35.748 21.9022 30.3756
2 35.7683 21.8848 30.1952
3 35.6668 21.4894 30.1352
3 35.6569 21.3339 29.9757
2 35.3177 21.2283 29.9968
3 35.1451 21.3449 29.9409
2 34.9452 21.4264 30.1051
2 34.8227 21.4714 30.0823
2 34.6169 21.519 30.2643
2 34.4798 21.4256 30.5314
2 34.37 21.6419 30.8416
3 34.3589 21.7185 31.1628
3 34.1319 21.6372 31.3179
2 34.3269 21.8155 31.3802
2 34.428 21.9701 31.5219
3 34.5846 22.0271 31.6812
2 34.695 21.6521 31.9893
2 34.684 21.5882 32.1551
2 34.9981 21.6911 31.9747
3 35.0444 21.7057 31.8794
3 35.3873 21.7169 32.2482
2 35.5538 21.8444 32.3129
2 35.6395 21.912 32.2767
1 35.9184 21.9274 32.343
1 35.9818 22.2724 31.7529
1 -0.219257 22.4181 31.8163
1 36.0807 22.4525 31.6731
1 2.43008 30.4027 -0.197899
1 2.64307 30.4515 -0.155222
1 2.60226 30.542 35.9482
1 3.01249 30.6159 35.9599
3 3.18518 30.8183 0.157962
2 3.49186 31.1757 0.151046
3 3.51123 31.2138 0.0816561
2 3.54794 31.2775 0.154909
2 3.54199 31.511 0.342134
3 3.65782 31.496 0.701838
2 3.8554 31.7112 0.714833
2 3.90454 31.8147 0.631785
2 4.10154 31.8299 0.42
3 4.12806 32.0067 36.2269
2 4.21508 32.1108 35.846
2 4.2235 32.0993 35.8895
3 4.23412 32.145 35.7084
2 4.48757 32.3734 35.6096
3 4.52302 32.425 35.3431
2 4.8256 32.2817 35.2134
2 5.0066 32.2693 34.9915
2 5.00272 32.4154 34.7947
2 5.26452 32.5103 34.6594
2 5.34114 32.8121 34.4686
2 5.2715 32.8204 34.4076
3 5.3951 33.3147 34.3484
2 5.42579 33.3272 34.1152
2 5.48889 33.5628 34.0069
2 5.44613 33.5026 33.8303
3 5.37765 33.4514 33.4963
3 5.28181 33.282 33.2241
2 5.30947 33.1073 33.3246
3 5.28661 32.8478 32.9616
2 5.52562 32.5852 32.9316
1 5.22781 32.6178 32.8503
1 4.96532 32.6602 32.4523
1 4.88113 32.7837 32.1709
1 4.80785 32.4875 32.2744
1 2.212 0.993947 29.5172
1 2.18323 0.773321 29.5796
1 1.95209 0.575734 29.5974
1 1.87226 1.46317 29.5084
2 1.77702 1.95737 29.4625
3 1.80222 2.01887 29.4364
3 1.81175 2.15334 29.3868
2 1.59615 2.30597 29.1601
3 1.71423 2.44942 28.9725
2 1.98562 2.49569 28.8843
3 2.08119 2.46108 28.9349
3 2.21649 2.56383 28.6664
2 2.54679 2.52073 28.5785
3 2.55667 2.74998 28.5342
3 2.79068 2.86824 28.4002
2 2.74678 3.05238 28.2674
2 3.05432 3.17651 28.286
2 2.99103 3.28159 28.6046
2 3.23335 3.15969 28.6586
2 3.433 3.25798 28.8877
2 3.47197 3.27369 29.0422
3 3.70568 3.46049 29.352
2 3.70047 3.33324 29.4966
2 3.63974 3.18332 29.6587
2 3.6071 3.24009 29.9434
2 3.49835 2.99646 29.9231
2 3.28426 3.00693 30.18
2 3.27416 2.91161 30.108
3 3.013 2.71482 30.1979
2 2.82612 2.69231 30.5265
2 2.77803 2.64546 30.6419
3 2.93922 2.17982 30.7688
2 2.97521 2.19916 30.859
2 3.07968 2.01527 30.8958
1 3.24823 1.73613 30.7897
1 3.50214 1.18451 30.7337
1 3.20691 1.33205 30.5177
1 3.62033 1.08296 30.5966
1 3.73024 32.0876 23.9127
1 3.50421 31.9952 23.753
1 3.61013 32.2766 23.5656
1 3.1908 32.3313 23.1553
2 3.04339 32.4201 23.2556
3 2.74282 32.4164 23.092
2 2.64981 32.5884 23.1527
2 2.43502 32.6496 23.3306
2 2.36006 32.7922 23.4495
3 2.14637 32.9701 23.4558
2 2.07212 32.9703 23.4255
2 1.69116 33.0425 23.3176
2 1.6228 33.0871 23.1874
3 1.37812 33.0374 23.35
2 1.43249 33.1248 23.4958
3 1.03955 33.1161 23.5373
2 0.894018 32.9686 23.5555
2 0.728991 32.8912 23.8576
3 0.602702 32.9978 23.7143
2 0.437932 33.0266 24.0983
2 0.366662 33.0425 24.1919
3 0.105317 33.0309 23.9939
2 0.035454 32.5501 24.1966
2 35.9592 32.4594 24.2215
2 36.0255 32.2354 24.4232
3 35.9235 32.1167 24.7077
2 35.8809 32.0547 24.7308
2 -0.109377 32.052 24.9176
3 -0.00258285 31.8028 25.1245
2 0.0606914 31.9055 25.498
2 0.075819 32.0134 25.5211
3 0.285814 32.0409 25.4917
3 0.549412 31.8905 25.6574
2 0.85193 31.9645 25.9191
1 1.14424 32.0268 25.7475
1 1.41927 31.9803 25.5785
1 1.6349 31.8613 25.5696
1 1.94153 31.7549 25.2321
1 7.46459 23.8246 27.9479
1 7.36844 23.9399 27.7305
1 7.20755 23.682 28.0465
1 7.31414 23.6292 28.1818
3 7.21297 23.5062 28.4789
2 7.27337 23.3794 28.9131
2 7.25939 23.4127 28.9271
2 7.34538 23.3523 29.1651
2 7.32986 23.1824 29.2892
3 7.48783 23.0619 29.4823
3 7.72757 23.258 29.8291
2 7.78117 23.3849 30.0078
3 7.77938 23.3907 30.0182
3 7.68249 23.6102 30.0455
3 7.64081 23.7728 30.3258
3 7.66526 24.0119 30.4941
3 7.79372 24.0829 30.6524
3 7.51327 24.142 30.5724
3 7.2687 24.306 30.7669
2 7.18954 24.4843 30.8034
2 6.91235 24.5327 30.9436
2 6.90837 24.5942 30.8656
2 6.7262 24.725 30.8753
2 6.50549 24.7128 30.7908
2 6.29649 24.8472 30.6752
2 6.10287 24.8335 30.6295
2 5.94476 24.898 30.6446
2 5.69087 24.9066 30.4799
2 5.69414 24.9074 30.1533
2 5.41469 24.9142 30.2387
2 5.40437 24.951 29.9757
2 5.232 25.0506 29.7802
2 5.18464 25.1303 29.4997
2 5.05679 25.25 29.4536
1 4.99541 25.1197 29.2917
1 4.76355 25.4226 29.0744
1 4.67194 25.5869 29.035
1 4.87532 25.3511 28.6101
1 4.18797 30.3041 24.9727
1 4.24159 30.0714 25.0461
1 4.08506 30.4665 25.0317
1 3.18144 30.3567 24.5688
3 3.18714 30.1192 24.7853
3 3.13871 30.3752 24.945
3 3.11347 30.3323 25.062
3 3.16735 30.4416 25.5537
2 3.37358 30.3758 25.5883
2 3.335 30.4945 25.5742
2 3.28703 30.5295 25.7918
2 3.33753 30.6634 26.1041
2 3.51501 31.1068 26.2272
2 3.52407 31.1917 26.3127
2 3.66011 31.2643 26.5744
2 3.76584 31.1215 26.7401
3 3.77458 31.1644 26.9731
3 3.59238 31.1512 27.198
2 3.65184 31.2037 27.3175
2 3.39481 31.0776 27.5361
2 3.28282 31.2019 27.481
3 3.00139 30.9736 27.4444
2 2.82802 30.8367 27.6024
2 2.54466 30.8505 27.5091
3 2.37698 30.751 27.2632
2 2.07181 30.676 27.5324
2 1.85837 31.0004 27.4886
2 1.8254 30.9922 27.3477
3 1.70612 30.808 27.2041
2 1.64381 30.7571 26.8457
2 1.55564 30.8266 26.665
2 1.39363 30.6751 26.6238
2 1.29264 30.7892 26.4008
2 1.06944 30.8925 26.0943
1 0.888835 30.8962 26.0693
1 0.72168 30.959 25.9008
1 0.651242 31.1008 25.895
1 0.284272 31.038 25.9307
1 6.76014 29.0407 22.2204
1 6.47517 29.235 21.8542
1 6.40249 29.126 22.1825
1 6.25783 29.2442 21.2401
2 6.47545 29.0787 21.1043
2 6.62674 29.1386 20.945
2 6.5187 29.0746 20.847
2 6.54401 28.7876 20.6854
3 6.49311 28.585 20.3726
2 6.26035 28.5328 20.5821
2 6.33553 28.1937 20.4109
3 6.13822 28.0057 20.3171
2 6.08658 28.1192 20.0784
2 5.79783 27.956 20.1723
3 5.5222 27.7649 20.4506
3 4.99725 27.8841 20.2287
2 4.96264 27.8752 20.2276
3 4.80205 27.9703 20.3398
2 4.75016 27.7351 20.583
3 4.6179 27.8683 20.7907
2 4.52259 27.8362 21.036
2 4.46628 27.7405 21.3124
3 4.59808 27.8213 21.4254
2 4.59355 28.2578 21.3811
3 4.48637 28.28 21.5085
2 4.48401 28.4177 21.6107
2 4.32371 28.6034 21.8446
2 4.42202 28.7809 21.9488
3 4.30122 28.7905 22.3384
2 4.40179 28.8494 22.4773
3 4.65919 28.8567 22.5914
2 4.66155 28.9642 22.7785
2 4.76469 29.1823 22.8969
2 4.76669 29.4857 22.9481
1 4.83899 29.6551 22.9561
1 4.9212 29.7444 23.3966
1 4.95354 29.7423 23.4946
1 5.11302 29.6228 23.7129
1 2.62761 2.84881 26.4519
1 2.63221 2.8121 26.4101
1 2.33266 2.62719 26.3978
1 2.14028 2.57696 26.2577
2 1.75977 2.67173 26.3066
3 1.66066 2.67545 26.5583
3 1.43831 2.85103 26.7616
2 1.19272 2.78516 26.7681
2 0.99079 2.91208 26.566
2 0.849238 2.92826 26.6338
2 0.592011 2.93745 26.5927
2 0.619468 2.99629 26.4301
3 0.348646 2.99164 26.3099
3 36.2029 3.09424 26.2879
2 35.9395 3.00157 26.4473
2 35.7552 3.11677 26.2623
3 35.6625 2.82348 26.2444
3 35.4305 2.64628 26.2892
3 35.3736 2.50425 26.0219
2 35.3211 2.27055 26.1046
2 35.3816 2.12735 25.9796
3 35.3844 2.08203 25.8595
2 35.7487 1.95259 25.7325
3 -0.154863 1.79263 25.8815
2 0.16835 1.98042 26.0076
2 0.193299 2.06573 26.0179
3 0.332406 2.1139 26.1278
2 0.56831 2.02785 26.3194
2 0.787367 2.07188 26.2633
2 0.98721 1.84348 26.4637
2 1.32411 1.72869 26.2148
2 1.40558 1.64278 26.3361
2 1.64151 1.54022 26.0988
2 1.89762 1.52399 26.0139
1 2.13297 1.55261 25.9321
1 2.28138 1.43558 25.7669
1 2.86621 1.37204 25.9906
1 2.97761 1.37581 25.7243
1 5.65024 2.79334 25.5482
1 5.98332 2.97137 25.5318
1 5.73881 3.08138 25.5536
1 5.25575 3.221 25.3505
3 5.1306 3.58945 25.3598
3 5.03028 3.70061 25.5063
3 5.00626 3.82869 25.5051
3 4.71717 4.05355 25.7484
2 4.65933 4.19682 25.6919
2 4.50051 4.49396 25.5958
2 4.61885 4.66782 25.5864
2 4.77695 4.84459 25.6071
2 4.63585 5.10809 25.2736
2 4.54602 5.38397 25.4474
2 4.33184 5.41025 25.2536
2 4.1971 5.32059 25.4376
3 4.15448 5.32739 25.7324
2 3.87759 5.31039 26.0254
3 3.94009 5.44419 26.3677
2 4.11582 5.31794 26.3797
2 4.16172 5.0476 26.6528
2 4.26355 4.88428 26.691
3 4.43207 4.79771 26.7739
3 4.55762 4.59075 26.6729
2 4.57725 4.37901 26.6473
2 4.6814 4.2057 26.6364
2 4.95172 4.01707 26.5686
2 5.37476 3.68575 26.5486
2 5.40704 3.72214 26.4351
2 5.09837 3.60174 26.5404
3 5.2292 3.48879 26.4633
3 5.34878 3.01119 26.5998
2 5.47337 2.75241 26.6536
2 5.41921 2.8542 26.7153
1 5.32874 2.54497 26.4593
1 5.42091 2.28121 26.155
1 5.08489 2.18315 25.834
1 5.24592 2.12279 26.0919
1 34.7741 30.5901 26.083
1 34.7157 30.5681 26.3729
1 34.7471 30.7085 26.067
1 34.6167 31.0597 25.9956
2 34.5017 31.2871 26.0245
2 34.4699 31.4342 25.9012
2 34.3383 31.4452 25.7722
3 34.0016 31.8051 25.5295
2 33.9528 31.7732 25.3402
2 33.8371 31.6687 25.1523
2 33.6026 31.6589 25.3028
3 33.3826 31.9207 25.5828
2 33.2262 31.9759 25.5329
2 32.988 32.1177 25.5197
3 33.0745 32.3395 25.5693
2 32.9303 32.4571 25.6325
2 32.9948 32.733 25.5789
3 32.9745 32.7289 25.6604
2 33.1824 33.0519 25.9498
2 33.2733 33.0857 26.1492
2 33.2137 33.1648 26.2275
3 33.3856 32.9786 26.5604
2 33.6046 32.9372 26.4793
2 33.9387 32.7091 26.6453
3 33.9077 32.6365 26.6543
3 33.6832 32.2812 26.744
3 33.4769 32.0872 26.4809
2 33.5288 31.876 26.5986
3 33.5462 31.7296 26.8257
2 33.5243 31.6104 27.0313
2 33.7524 31.6308 26.97
3 34.1574 31.5831 26.9167
2 34.3488 31.5976 27.0638
2 34.3678 31.4957 26.882
1 34.6202 31.5273 26.8488
1 34.8234 31.0456 27.1575
1 35.0332 30.9704 26.9729
1 35.1067 30.7614 27.0412
1 11.6422 31.4572 34.7014
1 11.9707 31.4839 34.8987
1 11.791 31.4382 34.7272
1 12.1085 31.6316 35.3505
3 12.1784 31.8288 35.5304
3 12.3342 31.975 35.6454
3 12.2063 31.8263 35.8466
3 12.223 32.1001 0.152896
2 12.1335 31.9237 0.147907
3 11.9704 32.0614 0.438472
2 12.043 32.1945 0.57876
2 11.604 32.1933 0.623316
2 11.569 32.335 0.894963
3 11.6761 32.6517 1.16518
2 11.5048 32.5416 1.26692
2 11.2999 32.5706 1.2398
2 11.0833 32.5618 1.34838
3 10.9634 32.3663 1.47514
2 10.7159 32.4221 1.45805
2 10.5471 32.3208 1.37306
2 10.4031 32.0965 1.37498
2 10.3543 31.8189 1.39289
2 10.5048 31.4793 1.33145
2 10.6064 31.5492 1.15814
2 10.6736 31.3051 1.09344
2 10.758 31.1709 0.856551
2 11.2424 31.2993 0.93617
2 11.3231 31.1948 0.711191
2 11.4074 31.2504 0.470742
2 11.4456 31.3477 0.275238
3 11.5519 31.3195 0.130523
2 11.6307 31.0891 35.8847
2 11.5696 31.0805 35.7066
2 11.508 30.729 35.568
1 11.5049 30.709 35.3167
1 11.3717 30.7369 34.8971
1 11.575 30.4892 34.7336
1 11.7207 30.5299 34.7362
1 10.7519 23.5016 32.0981
1 10.626 23.2831 32.024
1 10.4668 23.4612 31.8151
1 10.4626 22.907 31.7981
3 10.2774 22.8268 31.5175
2 10.213 22.6454 31.3808
3 10.1671 22.776 31.0726
3 10.2967 22.5477 30.9047
2 10.3167 22.6769 30.6008
2 10.4677 22.8455 30.5172
2 10.3387 22.9707 30.4486
2 10.3461 23.0041 30.105
3 10.3421 23.1978 29.99
2 10.4696 23.3 29.7654
2 10.5046 23.3886 29.6507
3 10.5082 23.4121 29.3719
3 10.6203 23.2724 29.369
3 10.4965 23.4148 28.93
2 10.429 23.3283 28.7935
2 10.401 23.0428 28.7551
2 10.2783 23.1776 28.8207
2 10.0477 22.8065 28.7894
2 9.88658 22.5971 28.998
2 9.71638 22.9304 29.0033
3 9.51705 23.1127 29.027
2 9.27437 23.2242 29.2642
2 9.33374 23.3373 29.4001
2 9.45158 23.7153 29.4346
2 9.56349 23.7869 29.3627
2 9.7373 23.902 29.5568
2 9.75325 23.87 29.689
3 10.1191 24.0541 29.6413
2 10.4462 24.3064 29.4474
2 10.5787 24.4489 29.6259
1 10.6226 24.3942 29.6703
1 10.734 24.5903 29.7891
1 10.7539 24.6546 30.161
1 11.1016 24.465 30.2984
1 0.111285 28.3766 34.1469
1 0.167442 28.9337 33.6533
1 0.187292 28.806 34.0171
1 0.60984 28.7022 33.811
2 0.903564 28.8947 33.9263
3 1.06899 28.8183 34.0851
2 1.24373 28.7981 33.8964
3 1.40469 28.729 33.8655
3 1.51475 28.5 33.9524
3 1.46619 28.2984 33.7737
3 1.65491 28.1999 33.4585
2 1.66487 28.059 33.4464
2 1.87656 28.1418 33.337
2 2.06318 27.8428 33.2552
2 2.06416 27.6176 33.1764
2 2.15047 27.4856 33.1819
2 2.33957 27.1639 33.3749
2 2.23399 26.9093 33.3867
2 2.22144 26.855 33.5871
2 2.37064 26.7844 33.7162
2 2.07818 26.4941 33.9282
2 1.87515 26.2803 34.0844
3 1.82188 26.343 34.303
2 1.68249 26.3573 34.2324
2 1.47014 26.5585 34.323
3 1.31076 26.7189 34.4261
2 1.39842 26.9393 34.3803
3 1.33522 27.212 34.3244
2 1.38223 27.3497 34.2517
2 1.29794 27.5701 34.3865
2 1.4483 27.7197 34.3356
2 0.985318 27.951 34.4333
2 0.788765 28.0463 34.5835
3 0.855941 28.0432 34.7156
1 0.675701 28.0684 34.7187
1 1.07876 28.3227 35.524
1 1.11931 28.6309 35.32
1 1.14906 28.2944 35.3912
1 9.08978 27.6679 23.4755
1 8.99404 27.6339 23.3741
1 8.88671 27.6205 23.3371
1 8.85096 26.8416 23.73
3 8.86352 26.8041 23.587
3 8.73462 26.7232 23.8466
2 8.79961 26.7034 23.8645
3 8.97325 26.2815 24.1738
3 9.15739 26.2504 24.1122
3 9.37019 26.1382 24.2084
2 9.54477 25.9733 24.4952
2 9.61179 25.847 24.4295
2 9.82235 26.039 24.7312
2 9.87272 26.0506 25.0319
2 9.88091 26.2076 25.0776
3 9.99272 26.1821 25.1181
2 10.0129 26.5933 25.2554
2 10.2101 26.7298 25.3215
3 10.2775 26.8203 25.5305
2 10.2963 26.8455 25.6923
2 10.3989 27.0251 25.8516