13984
Atoms. Timestep: 4300
1   34.91320   32.29320   27.23290
1   34.65180   32.37310   27.06070
1   34.92400   32.65460   27.15760
1   34.86520   32.83500   26.93770
2   34.75930   33.32210   26.98930
3   34.76260   33.39570   26.92810
2   34.77820   33.65370   27.10060
2   34.98340   33.79380   26.76660
3   34.74450   33.96280   26.73530
3   34.93800   34.22050   26.66030
2   35.00290   34.51160   26.32640
2   35.14980   34.64380   26.28140
2   35.21870   34.78820   26.27270
3   35.11050   35.14580   26.29230
2   35.25640   35.20980   26.41770
3   35.32230   35.39560   26.66380
2   35.48860   35.48530   26.81680
2   35.47460   35.45290   26.95490
3   35.27450   35.73950   26.95210
2   35.31460   35.84750   27.18850
3   35.25450   36.24300   27.12170
3   35.48940   36.44906   27.14390
2   35.61780   36.39810   27.12020
2   35.91950   36.27815   27.50170
2   36.14440   36.33141   27.52990
2   36.05972   36.68667   27.67140
3   36.23619   36.92824   27.81930
2   36.33666   37.00706   27.90720
2   36.43508   37.33068   28.20070
2   36.58792   37.09854   28.33390
3   36.58791   37.10945   28.23700
2   36.69535   37.05259   28.70470
2   36.83718   36.97270   29.05690
2   36.82015   37.13332   29.02560
1   36.89721   37.03562   29.16160
1   37.09885   37.03288   29.55900
1   37.23723   36.27834   29.46330
1   37.21489   36.24936   29.47690
1   38.90199   37.29429   27.76510
1   38.93574   37.27485   27.92570
1   38.67000   37.43832   27.95020
1   38.17584   37.59311   28.43960
2   38.08959   37.62827   28.43290
3   38.00765   37.44896   28.42820
3   37.71191   37.57944   28.35540
2   37.29578   37.69468   28.23000
2   37.26770   37.74902   28.35160
2   37.17789   37.81910   28.30800
2   36.97060   38.02449   28.51120
2   36.85595   38.18347   28.55960
3   36.67105   38.30574   28.87370
2   36.77438   38.34932   29.20050
2   36.75353   38.46687   29.15930
3   36.73336   38.58581   29.39800
2   36.68729   38.55855   29.65480
2   36.38180   38.54640   29.78770
2   36.48943   38.54033   30.12830
3   36.13154   38.34750   30.19980
3   36.07110   38.17079   30.27380
2   36.12830   37.96414   30.34610
2   35.81190   37.81612   30.33690
2   35.80430   37.75882   30.32330
3   35.75030   37.57671   30.26530
3   35.71160   37.39455   30.45170
3   35.67690   37.17469   30.41200
2   35.70009   36.86156   30.45450
3   35.69500   36.92142   30.49060
2   35.83200   36.59435   30.51520
2   35.91761   36.44193   30.35440
2   36.22532   36.34971   30.12040
2   36.41263   36.33103   30.11490
2   36.60436   36.37398   30.25220
1   36.77136   36.42717   30.12280
1   36.96463   36.68688   30.45790
1   36.91073   36.79662   30.41960
1   37.31730   36.92975   30.26130
1   38.72235   36.63993   30.36180
1   38.81034   36.73946   30.43910
1   38.56351   36.81588   30.49420
1   38.28280   36.70895   30.65730
2   38.01581   36.85982   30.90970
3   37.99236   36.96995   31.03170
2   37.75142   37.03462   31.11760
2   37.55139   37.24554   31.27420
2   37.41254   37.11476   31.23360
3   37.00551   37.03046   31.22650
2   36.84623   36.95141   31.36450
2   36.88903   37.04429   31.54520
2   36.80308   36.97239   31.88410
2   36.85368   36.95296   32.28770
2   36.74688   36.99544   32.39470
2   36.64079   37.01681   32.52160
3   36.32399   37.14306   32.49870
3   36.13079   37.10824   32.48820
2   35.80742   36.99569   32.41640
2   35.83990   36.79928   32.23500
3   35.50760   36.68791   32.09750
2   35.70580   36.61550   31.76620
2   35.82360   36.70627   31.68680
2   35.92803   36.83606   31.48590
3   36.04980   36.97048   31.51130
3   35.92950   37.36917   31.37950
2   36.03081   37.52799   31.33190
2   36.21502   37.49124   31.25890
3   36.35820   37.61471   31.06900
3   36.52958   37.54780   31.10050
2   36.76661   37.79674   30.97180
3   37.07752   38.05096   30.88090
2   37.07349   37.92405   30.58670
2   37.11595   37.91833   30.65400
1   37.05127   37.76475   30.21460
1   37.06487   37.65833   29.95180
1   36.89934   37.45937   29.94120
1   36.60277   37.31790   29.97340
1   39.13591   34.68860   30.80850
1   39.36143   34.67110   30.75510
1   39.09277   34.58380   30.71630
1   38.47967   34.00690   32.36600
2   38.40323   33.88000   32.53740
2   38.37110   34.02340   32.56560
3   38.12020   33.69290   32.66820
3   38.09212   33.71420   33.16120
2   37.96452   33.77430   33.28690
3   37.83545   33.87410   33.29870
3   37.73069   33.93650   33.29590
3   37.76670   34.31480   33.30900
2   37.55792   34.59440   33.45660
2   37.16297   34.59340   33.58600
2   37.24774   34.74460   33.42460
3   37.27583   34.87680   33.57440
2   37.30178   35.04760   33.82740
2   37.39904   35.47260   33.73500
2   37.47427   35.45420   33.85660
2   37.06793   35.58170   33.45560
2   36.95817   35.77130   33.21930
2   36.93132   35.69640   33.11500
2   36.91762   35.76560   33.09210
3   36.77513   35.90650   32.87250
2   36.71786   36.01234   32.73240
2   36.54209   36.10560   32.54470
2   36.52460   36.09123   32.37590
3   36.52644   36.11035   32.07330
3   36.84545   35.93836   31.98770
2   37.10639   36.07150   31.76440
2   37.10393   36.02895   31.59560
3   37.30282   36.07816   31.25640
2   37.37826   36.22219   31.14760
2   37.49217   36.22174   30.85070
1   37.60059   36.11212   30.83970
1   37.68917   36.07214   30.33340
1   37.65851   36.05972   30.19830
1   37.97723   35.96144   30.18240
1   38.05282   35.01140   30.55310
1   38.12954   35.09730   30.49890
1   38.09118   35.11230   30.64790
1   37.51819   35.12960   30.85190
2   37.19717   35.25610   30.77960
3   36.81330   35.15180   30.93830
3   36.71600   35.04760   31.01460
2   36.45352   34.95810   31.07840
3   36.41548   34.66050   30.96080
3   36.23179   34.65150   31.19950
2   36.19180   34.70370   31.31660
3   35.91410   34.64980   31.30990
2   35.80360   34.61740   31.37640
2   35.54770   34.81290   31.24260
2   35.32970   35.10660   31.24190
3   35.26930   35.10890   31.14370
2   35.10310   35.10890   30.98970
2   34.82250   34.98340   30.98130
2   34.83090   34.89980   30.70940
2   34.75760   34.78610   30.61040
3   34.83490   34.64190   30.39190
3   34.42350   34.74180   30.19420
2   34.51120   34.69390   29.91360
2   34.52240   34.72220   29.93090
2   34.71060   34.49770   29.69910
2   34.90760   34.37790   29.74450
3   34.87730   34.40350   29.52250
2   35.04910   34.32110   29.36360
2   35.09510   33.98310   29.29210
2   34.95930   33.68320   29.29840
2   34.91600   33.67670   29.18900
2   34.94130   33.50340   29.04490
3   34.77470   33.51010   28.76920
2   34.61630   33.23530   28.65800
1   34.82380   32.94000   28.53490
1   34.77590   32.63860   28.60700
1   34.92220   32.69530   28.14600
1   35.05400   32.50800   28.19180
1   39.21721   34.55250   31.77470
1   39.30836   34.63160   31.80620
1   39.37482   34.69570   31.94440
1   39.20529   34.57450   32.28260
2   39.15619   34.50460   32.77710
2   39.32215   34.62150   32.82430
3   39.38341   34.67810   32.94330
3   39.53094   34.74650   33.06760
2   39.47126   34.78150   33.30630
3   39.29057   34.82220   33.38000
3   39.36235   34.79260   33.69640
2   39.12351   34.91280   33.76370
3   39.09072   35.26450   33.78590
3   39.03903   35.43100   33.79820
2   39.24291   35.75460   33.76080
2   39.50839   35.75700   33.79640
3   39.67203   35.88090   33.83430
2   39.86452   35.72940   34.07290
2   39.94957   35.69770   33.77200
3   40.29422   35.59590   33.48260
2   40.41844   35.59410   33.39010
2   40.48151   35.55830   33.53330
2   40.67470   35.49070   33.22620
2   40.80144   35.51460   32.88630
3   40.88485   35.73840   32.87550
2   40.87626   35.94250   32.69150
2   40.77718   35.99050   32.63150
3   40.68076   36.23695   32.58120
2   40.43920   36.35592   32.28700
2   40.27350   36.27916   32.08070
2   40.20611   36.20913   32.03210
2   40.14140   36.33496   31.79060
2   40.06201   36.27534   31.84670
2   39.99808   36.40363   31.30900
1   39.81760   36.53752   31.12350
1   39.74783   36.19409   31.09040
1   39.74478   36.16346   31.02170
1   39.45470   35.83640   30.74580
1   35.02390   31.18320   31.89230
1   34.81430   31.30910   32.01740
1   34.75790   31.29520   31.90430
1   34.47360   31.83900   31.71780
3   34.65100   31.99850   31.98230
3   34.68630   32.16950   31.75920
3   34.65940   32.35550   31.63970
3   34.88900   32.68240   31.75350
2   34.67090   32.75600   31.93880
2   34.75170   33.04100   31.98330
2   34.86730   33.12450   32.14030
2   35.08100   33.62520   32.35430
2   35.12560   33.61080   32.13630
2   35.03370   33.79910   32.25150
2   34.86680   33.98000   32.27890
3   34.86440   34.38330   32.20190
2   34.76380   34.41670   32.53540
3   34.82220   34.50480   32.58770
2   35.01440   34.74210   32.17200
2   35.35420   34.92340   32.17720
3   35.24610   35.21500   31.99620
2   35.27940   35.26600   31.93920
2   35.37450   35.34280   32.34450
2   35.67660   35.55780   32.04370
3   36.05363   35.44340   31.88790
3   36.43024   35.27950   31.80640
3   36.44945   35.29700   31.99770
2   36.51410   35.27960   32.14990
2   36.79512   35.29170   32.00900
2   37.02985   35.01530   31.86180
2   37.26850   35.03540   31.82450
2   37.55615   34.96730   31.70010
2   37.80478   35.00920   31.91700
2   38.01696   34.95710   31.89560
1   38.19755   35.02520   31.55910
1   38.59597   35.00110   31.53650
1   38.63809   35.00380   31.27160
1   38.81228   34.92900   31.27930
1   38.98582   35.32250   30.21580
1   38.91233   35.25270   30.17260
1   39.02211   35.23820   30.47890
1   38.97542   34.64250   30.13490
3   38.88165   34.59980   29.81890
2   38.95594   34.51210   29.70070
2   38.80483   34.51350   29.42900
2   38.64399   34.47930   29.18110
2   38.84280   34.68490   29.17730
3   38.72031   34.64440   29.05950
2   38.52768   34.93420   28.91740
3   38.51718   35.06810   28.89700
3   38.57538   35.06720   28.63420
3   38.57474   35.00340   28.41400
2   38.52701   35.13190   28.44620
3   38.91064   35.12490   28.34070
3   38.87817   35.42960   27.90450
2   38.76469   35.32460   27.81540
2   38.63775   35.30420   27.52750
3   38.57631   34.94320   27.42300
2   38.48307   35.00970   27.27550
2   38.21979   34.82200   27.18800
2   38.20457   34.83340   27.05350
2   38.00655   34.60030   27.23870
2   37.79185   34.38580   27.20770
3   37.57162   34.27200   27.17310
2   37.58260   34.10770   26.91660
2   37.44199   33.96250   26.62400
2   37.48422   33.88960   26.46330
2   37.55341   33.80700   26.31640
2   37.79172   33.76890   26.30030
3   37.84082   33.23640   26.20830
2   37.89302   33.29960   26.10950
2   37.82707   33.16850   25.88080
1   38.12276   32.80030   25.92260
1   38.21900   32.47130   25.99520
1   38.26753   32.47980   25.86650
1   38.17227   32.30550   26.04330
1   39.41675   35.46370   31.24810
1   39.46853   35.40170   31.37520
1   39.26438   35.37740   31.53890
1   39.21671   35.90280   31.42680
3   39.18700   36.06930   31.84700
2   39.07117   35.96830   31.99200
3   39.12302   36.14777   32.08920
2   38.86761   36.20730   32.16290
3   38.94955   36.45338   32.32910
3   39.00411   36.56081   32.28330
3   38.84836   36.69595   32.52860
2   38.85871   37.02804   32.87000
2   38.77308   37.08716   32.73250
2   38.76502   37.37267   32.83180
2   38.82320   37.30248   32.74620
2   38.89803   37.69040   32.62630
3   38.88436   37.81386   32.50610
2   38.78392   38.01248   32.48720
2   38.55117   38.12177   32.34930
2   38.35080   38.20204   32.28020
2   38.13557   38.10809   32.33540
2   37.96178   38.13602   32.47570
2   37.85926   37.73692   32.44020
3   37.81549   37.75276   32.42160
2   37.97564   37.32803   32.44520
3   37.90812   37.18540   32.38610
2   37.92457   37.07499   32.09660
2   37.95126   36.86969   32.06820
3   37.84358   36.58401   31.83450
2   37.90612   36.51628   31.96370
2   37.99403   36.32417   31.88770
2   38.01293   35.97724   31.78340
2   38.29317   36.08680   31.64520
2   38.30655   35.98760   31.43990
1   38.53883   35.93400   31.19480
1   38.41324   35.82780   30.87210
1   38.54241   35.88040   30.91310
1   38.55143   35.94620   30.64760
1   42.45926   38.15633   25.90630
1   42.17732   38.22997   25.96570
1   42.29615   37.82437   26.01980
1   42.19135   37.54977   26.57410
3   42.37299   37.51853   26.60160
2   42.32235   37.19665   26.70340
2   42.40757   37.05322   26.79520
2   42.36291   36.67854   26.71920
2   42.15120   36.53408   26.90780
2   42.17528   36.43069   26.86010
2   42.33811   36.48047   27.11610
2   42.19047   36.22901   27.25210
3   42.15945   36.16460   27.36810
3   42.14870   36.00880   27.51600
3   42.13768   35.85180   27.59330
2   42.39288   35.76510   28.01960
3   42.14184   35.48320   28.05550
2   42.21636   35.45380   28.26140
3   42.15782   35.30230   28.20730
2   41.90452   35.00240   28.21890
2   41.89362   34.81960   28.36570
2   41.77517   34.66840   28.38400
3   41.59301   34.70690   28.56080
3   41.47423   34.60360   29.00880
2   41.37044   34.37710   28.96200
2   41.18005   34.33250   29.05030
3   40.95101   34.12210   29.01350
2   40.76637   33.98190   29.21810
3   40.61031   33.97110   29.32970
2   40.42227   33.87090   29.28800
2   40.28697   33.87510   29.31550
2   39.99622   34.01180   29.47330
2   39.88452   34.18310   29.68780
2   39.71394   34.12700   29.78170
1   39.75932   34.30730   30.14820
1   39.73806   34.18710   30.18930
1   40.02187   34.10440   30.58740
1   39.83860   33.87370   30.58770
1   34.65130   29.75180   31.76390
1   34.88890   29.99710   31.81800
1   35.32000   29.70670   31.77640
1   35.44010   29.87900   31.88440
2   35.51320   29.88490   32.09240
3   35.65510   29.97170   32.10760
3   35.86460   30.34530   32.30440
3   35.91750   30.39670   32.25200
2   36.04360   30.67750   32.19000
3   36.08148   30.96140   32.14550
2   36.13150   31.13240   32.02180
2   36.15425   31.26610   32.09350
3   36.20768   31.44950   32.33770
2   36.54374   31.74860   32.11580
2   36.55938   31.88580   32.19290
2   36.66448   32.03430   32.19930
2   36.97499   32.04270   32.13660
2   37.00978   32.35560   32.27670
2   37.01508   32.55770   32.28850
2   37.08954   32.69250   32.41410
2   36.98398   32.93750   32.63290
2   37.07322   33.14790   32.42430
3   36.71465   33.21770   32.38440
2   36.62072   33.42440   32.32470
3   36.52271   33.52930   32.20480
2   36.44117   33.62810   32.13000
2   36.42348   33.72900   32.09160
2   36.62990   34.09510   31.81690
2   36.97470   34.25910   31.72960
2   37.08207   34.08310   31.58280
3   37.34880   34.04950   31.42120
2   37.52214   34.17250   31.50620
2   37.82150   34.11420   31.49550
3   37.84558   33.97430   31.50770
1   38.20118   34.10500   31.46400
1   38.61885   34.02820   31.40520
1   38.69552   34.01710   31.48860
1   38.70070   34.04480   31.30550
1   39.38527   33.71000   31.55760
1   39.41749   33.55660   31.57730
1   39.43314   33.59970   31.86270
1   39.33245   33.41580   31.92000
2   39.10097   33.16130   32.04570
2   38.83153   32.92730   31.97970
3   38.77701   32.92180   31.83900
3   38.64039   32.74440   31.87890
3   38.58826   32.42940   31.94420
2   38.39119   32.15770   31.70130
3   38.39853   32.24980   31.64150
2   38.30975   32.06820   31.39760
2   38.18710   32.06620   31.28220
2   37.92383   31.93710   31.25630
2   37.82294   31.61670   30.97250
2   37.92657   31.39980   30.77200
2   37.89447   31.13090   30.87760
2   37.81660   31.08050   30.63970
2   37.56307   31.00900   30.49270
3   37.78375   30.81180   30.36560
2   37.90252   30.71210   30.29770
3   37.95587   30.73680   30.18200
3   38.14643   30.50770   30.16360
2   38.37687   30.48390   29.95880
3   38.77134   30.38530   30.07880
2   38.93907   30.51780   30.11910
2   39.06390   30.62970   30.25170
2   38.98803   30.81280   30.25660
2   39.07520   31.02550   30.31630
2   39.01680   31.27040   30.40030
2   38.87461   31.45570   30.69350
3   38.91711   31.56610   30.93170
2   38.89141   31.55450   30.93340
2   38.97531   31.82500   31.02790
1   39.19745   32.01610   30.98590
1   39.60383   32.30220   31.10220
1   39.47970   32.43410   31.33520
1   39.69756   32.45420   31.35660
1   39.99618   33.06290   30.92200
1   39.98951   33.38020   30.88010
1   40.19811   33.22330   30.53560
1   39.75825   33.10700   30.19160
3   39.53789   33.27400   29.91970
3   39.47451   33.17530   29.90120
2   39.32051   33.18820   30.04230
2   39.09299   33.51820   29.61140
2   39.04697   33.51900   29.44300
3   39.02407   33.32770   29.41240
2   38.91829   33.13330   29.23900
3   38.92472   33.17540   29.12700
3   39.04110   33.13240   28.85210
3   38.90787   33.07660   28.59180
2   38.82030   33.03250   28.62460
2   38.94047   32.79060   28.37400
3   39.08816   32.68490   28.35620
2   38.91920   32.60990   28.26610
2   39.04731   32.57800   28.13010
2   39.24911   32.16900   27.94420
2   39.43983   32.06820   27.78370
2   39.26778   32.08670   27.62400
2   39.16422   32.03790   27.55310
2   39.12308   31.98830   27.26620
3   39.19335   32.06120   26.96120
2   39.27630   32.23670   26.77150
3   39.40927   32.15240   26.71760
2   39.54414   32.30950   26.47940
2   39.73755   32.36240   26.29550
2   39.78723   32.12020   26.12940
2   39.85103   32.04010   25.99130
2   40.05919   31.93010   26.01340
2   40.08445   31.80990   25.77070
3   39.83399   31.74240   25.74580
1   39.67322   31.54050   25.31680
1   39.66374   31.36950   25.07680
1   39.70131   31.42210   25.04530
1   39.47841   31.38750   25.15170
1   40.00684   31.87240   30.40610
1   39.73705   31.76500   30.42340
1   39.71107   32.16750   30.39930
1   39.70003   32.30800   30.05050
2   39.49476   32.19150   29.96420
2   39.31897   32.07020   29.69340
2   39.34884   32.13900   29.67930
3   39.00187   32.16980   29.48350
2   38.68071   32.08890   29.47230
3   38.73090   32.35290   29.34280
2   38.68294   32.11140   29.10950
3   38.64122   32.20070   29.03430
3   38.26403   32.18790   29.12970
2   37.89371   32.26690   28.91690
2   37.94135   32.51420   28.80010
3   37.99940   32.67320   28.69200
3   37.67904   32.67710   28.69040
2   37.68844   32.83100   28.52280
2   37.54913   32.94410   28.28550
3   37.50258   33.16260   28.32540
3   37.50041   33.22520   28.10340
2   37.42875   33.57780   28.13990
3   37.40154   33.75010   28.30590
3   37.34205   33.77160   28.11140
2   37.56955   33.93770   28.31450
2   37.73299   34.25800   28.27300
2   37.90763   34.55270   28.20830
2   37.68345   34.66780   28.00810
2   37.62817   35.00140   28.03310
2   37.93980   35.17660   27.94380
2   37.88669   35.31990   28.09800
2   37.92699   35.57890   28.16350
2   37.94575   35.63920   28.10320
2   38.16786   35.89630   28.14470
1   38.13829   36.18337   27.98140
1   38.15639   36.43130   27.75540
1   38.21152   36.77485   27.92290
1   38.08209   36.57320   27.91440
1   39.16830   36.63624   27.46400
1   39.31382   36.49611   27.50060
1   39.06804   36.40430   27.58400
1   39.35823   36.10077   27.89220
2   39.39171   35.92270   27.97610
3   39.64174   35.74050   28.13050
2   39.79488   35.58610   28.06900
2   39.82019   35.62480   28.08830
2   40.02476   35.36340   28.18540
3   39.94165   35.36800   28.40120
2   39.87321   35.00670   28.28170
3   39.78871   34.86900   28.44900
3   39.58953   34.83760   28.64530
2   39.50380   34.72880   28.70770
2   39.54743   34.43530   28.59710
2   39.38744   34.23180   28.67040
2   39.11275   34.09780   28.64180
3   38.92173   34.26840   28.35810
3   38.81009   34.16000   28.37980
2   38.60827   33.94930   28.30230
3   38.39135   33.83500   28.50970
2   38.18841   33.73220   28.70260
3   38.21466   33.81830   28.99040
2   38.04702   33.57600   29.17490
2   37.91296   33.64090   29.22060
3   37.90973   33.82840   29.40340
2   37.64753   33.82350   29.58060
2   37.61172   33.95320   29.69970
2   37.52209   34.00450   29.83000
2   37.46490   34.01220   29.96050
3   37.53247   33.89030   30.29360
2   38.03268   33.88890   30.50130
2   38.24995   34.02290   30.39860
2   38.16724   34.12980   30.46290
1   38.28695   34.22360   30.66190
1   38.97030   33.77080   30.65100
1   39.07579   33.77640   30.65920
1   38.97874   33.81060   30.63330
1   41.22487   31.89190   31.30140
1   40.99160   31.27820   31.76120
1   41.00266   31.31910   31.61460
1   40.79731   31.13500   31.90620
2   40.75629   30.94590   32.00040
3   40.63623   30.79780   32.16480
2   40.40729   30.73200   32.20120
2   40.19317   30.52630   32.13580
2   39.94429   30.50610   31.92760
3   39.96151   30.42880   31.95320
2   39.91343   30.20380   31.95580
3   39.78007   30.09840   31.92620
2   39.82166   29.87140   32.04760
3   39.76547   29.68220   32.19070
3   39.66812   29.66270   32.45920
3   39.85014   29.46470   32.52100
2   39.85005   29.53950   32.80680
3   39.54871   29.53810   33.05860
2   39.45872   29.37820   33.15720
2   39.28610   29.19590   33.19040
3   39.56843   29.25270   33.46830
2   39.39971   29.20700   33.56180
3   39.44405   28.98570   33.69050
2   39.54267   28.86150   34.02650
2   39.71417   28.86310   34.08980
2   39.96226   28.78620   34.09040
2   40.20869   28.82520   34.22180
2   40.26435   28.47700   34.16550
2   40.40538   28.38020   34.54870
2   40.31720   28.38120   34.83700
2   40.29990   28.18360   34.90120
3   40.55281   28.29390   34.99800
2   40.71220   28.14690   35.15650
2   40.79181   28.07720   35.31360
1   40.85929   27.99100   35.67640
1   40.90077   28.41230   36.03627
1   40.95526   28.48650   36.02700
1   40.76100   28.38400   36.06885
1   40.35770   31.74560   31.27830
1   40.26094   31.77510   31.36900
1   40.22364   31.87720   31.30940
1   39.94620   31.66090   31.48310
2   39.54325   31.37820   31.63840
2   39.56798   31.57070   31.80010
3   39.47975   31.58240   31.90510
2   39.29123   31.81510   32.15380
3   39.15742   31.77150   32.37710
2   39.03433   31.95340   32.59660
2   39.00759   31.92020   32.75570
3   39.11613   31.88500   32.96720
3   39.22706   31.91810   33.13280
3   39.50263   32.01490   32.99210
3   39.71178   32.15230   33.25980
2   39.95078   32.02830   33.51860
2   39.97871   32.01860   33.61330
2   40.06930   31.76680   33.50490
3   40.32684   31.57700   33.63760
2   40.60329   31.51800   33.83170
2   40.38249   31.28490   33.83520
3   40.30600   31.33450   34.07940
2   40.29172   31.52080   34.42640
2   40.15882   31.24010   34.40040
2   40.00420   31.23670   34.51190
2   39.79586   31.05650   34.65500
2   39.62938   31.22690   34.70670
2   39.37413   30.98910   35.02690
3   39.12350   30.97690   34.96660
2   39.04677   30.70690   34.96460
2   39.07958   30.60630   34.96570
2   39.08778   30.25960   35.09490
2   39.16518   30.16350   35.21180
2   38.92709   29.86870   35.38530
1   38.98939   29.72020   35.52970
1   38.72399   29.38360   35.93772
1   38.75483   29.42400   36.20103
1   38.73426   29.53470   36.13159
1   41.92167   31.32950   30.45250
1   41.92678   31.29090   30.54850
1   41.98390   31.25930   30.61810
1   41.65895   31.03930   29.42250
2   41.81155   30.92330   29.37650
2   41.91481   30.96880   29.37960
3   42.07323   31.11850   29.17370
2   42.21404   31.22190   28.79220
3   41.80922   31.30600   28.60690
2   41.93554   31.43180   28.46600
2   41.89465   31.46970   28.32810
2   41.82327   31.62020   28.11110
2   41.90663   31.82850   27.96400
3   41.90283   32.12440   27.82790
2   41.87804   32.12790   27.71210
2   42.08253   32.41370   27.57250
3   42.32743   32.41190   27.42130
3   42.45925   32.50930   27.43250
3   42.40162   32.68260   27.29180
2   42.78138   32.72430   27.11350
3   42.73920   32.59590   26.99530
2   43.03020   32.49880   26.87050
3   43.21187   32.46820   26.67210
2   43.07861   32.36450   26.30070
2   43.28290   32.21480   26.26580
2   43.47733   32.23810   26.05080
3   43.52828   32.12750   25.91010
2   43.42728   32.03430   25.84230
2   43.25271   32.06630   25.37060
2   43.13760   31.91760   25.15710
2   43.16679   31.72340   25.15150
2   43.09618   31.38240   24.85370
2   42.89265   31.42170   24.65470
3   42.76434   31.52240   24.45180
1   42.58535   31.58010   24.33030
1   42.54778   31.48690   24.00030
1   41.96697   31.72900   23.86170
1   42.12934   31.59540   23.68840
1   40.49032   31.70680   30.29180
1   40.96485   31.53200   30.79700
1   40.66900   31.51470   29.98900
1   40.54157   31.75340   29.80410
3   40.49053   31.74220   29.58280
3   40.31058   31.54540   29.43780
3   39.87268   31.34160   29.55470
2   39.67928   31.32050   29.58500
3   39.57787   31.27020   29.44730
2   39.31363   31.25210   29.38660
2   39.03611   31.19110   29.42120
3   38.85647   31.16460   29.33590
2   38.75877   31.23550   29.43570
2   38.53145   31.19710   29.29230
2   38.25990   31.18190   29.25130
2   38.05101   31.27920   29.17510
2   37.87109   31.11130   29.25010
2   37.75094   31.00670   29.37080
2   37.50783   30.95340   29.14610
2   37.22280   30.82060   29.22880
2   36.96828   30.67420   29.46240
3   36.63702   30.59630   29.32300
2   36.66816   30.59030   29.38390
2   36.44304   30.74680   29.39190
2   36.13504   30.81770   29.58930
2   36.06419   30.87440   29.88070
3   35.96630   30.81970   30.00700
2   36.05950   30.91100   30.04270
3   35.75050   30.93360   30.28240
2   35.34840   30.96230   30.31490
3   35.29740   30.90800   30.32890
2   35.18530   30.95080   30.28940
3   35.01040   30.79600   30.30680
2   34.63820   30.85290   30.50550
1   34.36870   30.75800   30.51930
1   34.38780   30.57670   30.23270
1   33.92630   30.42410   30.65160
1   34.20290   30.19910   30.07580
1   39.33394   28.70910   35.78670
1   39.50027   28.66670   35.51100
1   39.77165   28.76770   35.63950
1   39.51975   28.88880   35.37280
2   39.59019   29.00940   35.06810
2   39.72165   29.30210   34.91850
3   39.71986   29.42580   34.76790
3   39.76568   29.44820   34.75190
2   39.81954   29.89010   34.59670
3   39.88538   29.94910   34.57330
3   39.95931   29.90070   34.34640
3   39.93677   29.98430   34.08420
2   39.97272   29.96750   33.83440
2   40.04260   30.09990   33.72320
3   40.09642   29.94170   33.49960
3   40.18773   29.80540   33.31460
2   40.54227   29.82660   33.22690
2   40.64047   29.81250   33.13120
3   40.99888   29.66580   33.12080
2   40.92175   29.46240   33.30960
3   40.94963   29.34620   33.13980
3   40.76808   29.11570   33.10050
2   40.51256   29.10680   32.76830
2   40.47137   29.01100   32.52520
2   40.57606   29.23610   32.50130
2   40.61632   29.44200   32.37650
2   40.73873   29.60000   32.19890
2   40.73891   29.63160   32.00370
2   40.91105   29.68190   31.92250
2   41.06705   29.85700   31.92830
2   41.24110   29.96200   31.94240
2   41.53769   30.21570   32.03030
2   41.70932   30.45910   31.87070
2   41.91557   30.26500   32.01180
1   41.98019   30.34260   31.89940
1   41.75442   30.83750   31.17820
1   41.57985   30.82540   31.15220
1   41.41690   30.95120   31.12630
1   41.50689   30.48620   30.24120
1   41.23893   30.85330   30.08320
1   41.06846   30.81360   30.08700
1   41.13516   30.59190   29.75660
3   40.88870   30.58380   29.55640
3   40.69930   30.37760   29.55530
2   40.47762   30.27740   29.34540
2   40.54294   30.15350   29.41850
2   40.53778   30.00110   29.16150
3   40.66113   29.79610   28.93960
2   40.46237   29.88870   28.72770
2   40.29281   29.79580   28.48660
2   40.07927   29.86140   28.36530
2   39.86553   29.74360   28.35450
3   39.63070   29.64840   28.12740
2   39.50393   29.34350   28.16210
2   39.46001   29.08330   28.18050
3   39.45506   29.12620   28.22180
2   39.01186   29.01820   28.13950
2   38.83049   28.67660   28.10050
2   38.62879   28.82490   27.98320
3   38.58084   28.87770   27.86800
2   38.37003   28.91020   27.71150
2   38.28627   28.88470   27.54670
3   38.01625   28.91410   27.51620
2   37.91577   28.92950   27.35800
2   38.00533   29.15030   27.17540
2   38.01855   29.29280   26.74880
3   37.95668   29.21250   26.57790
2   37.90604   29.24480   26.55670
3   37.93334   29.39510   26.45670
2   37.74848   29.63510   26.25500
2   37.55663   29.92640   26.24300
3   37.53266   29.83010   26.20050
1   37.36925   30.05100   25.87430
1   37.37969   30.10260   25.58970
1   37.16802   30.28340   25.41080
1   37.15790   29.99590   25.36520
1   40.62585   30.61180   31.23010
1   40.70211   30.62630   31.02070
1   40.74501   30.62620   31.00990
1   41.01558   30.17050   31.00190
2   41.02280   29.90960   30.99960
3   41.08348   29.86810   30.98030
2   41.37219   29.70100   31.05750
3   41.65167   29.63800   31.25580
2   41.82153   29.35940   31.47560
2   41.92849   29.40220   31.57960
2   41.85956   29.26330   31.81830
3   41.82438   29.36130   32.11860
3   41.80975   29.28540   32.38800
2   41.79879   29.53880   32.72070
2   41.70603   29.63540   32.81970
3   41.73937   29.70780   32.75640
2   41.76844   30.03380   32.78520
2   41.57978   30.30140   32.84830
3   41.62695   30.63530   32.81310
2   41.58669   30.67080   33.04200
2   41.61041   30.66640   33.10950
2   41.79785   30.94810   33.46690
2   41.88670   31.16060   33.46270
2   42.19642   31.23200   33.48780
3   42.27678   30.96740   33.53320
2   42.51769   30.90220   33.51100
2   42.62232   30.61550   33.52820
2   42.72016   30.53780   33.36850
3   42.58523   30.50080   33.22350
3   42.65925   30.30220   33.05980
2   42.57361   30.19340   32.75830
3   42.70674   29.87200   32.44520
2   42.75717   29.86160   32.33520
2   42.81732   29.96340   32.15640
1   42.73435   29.97160   31.90770
1   42.64748   30.12880   31.45050
1   42.55715   30.00090   31.38200
1   42.56481   30.20050   31.26410
1   34.37890   29.83650   31.02610
1   34.47540   29.86980   31.09500
1   34.66940   29.61040   30.94540
1   34.98460   29.56410   30.82470
3   35.32270   29.61530   30.70500
3   35.42610   29.51730   30.82730
3   35.51960   29.55830   30.92260
2   35.82910   29.57970   30.90160
2   36.01630   29.50880   30.90340
3   36.13402   29.60740   30.93190
2   36.31714   29.47440   30.82320
2   36.56031   29.43190   30.86210
3   36.70467   29.48050   30.88950
3   37.04096   29.39480   30.80940
2   37.24468   29.36750   31.06330
2   37.41368   29.44130   31.24770
2   37.51903   29.25840   31.27550
3   37.80119   29.36450   31.38840
2   37.72800   29.53540   31.44360
3   37.70841   29.82780   31.73680